12.44999490 0.00000000 0.00000000 0.00000000 12.44999490 0.00000000 0.00000000 0.00000000 12.44999490
12.44999490 0.00000000 0.00000000 0.00000000 12.44999490 0.00000000 0.00000000 0.00000000 12.44999490
12.44999490 0.00000000 0.00000000 0.00000000 12.44999490 0.00000000 0.00000000 0.00000000 12.44999490
12.44999490 0.00000000 0.00000000 0.00000000 12.44999490 0.00000000 0.00000000 0.00000000 12.44999490
12.44999490 0.00000000 0.00000000 0.00000000 12.44999490 0.00000000 0.00000000 0.00000000 12.44999490
12.44999490 0.00000000 0.00000000 0.00000000 12.44999490 0.00000000 0.00000000 0.00000000 12.44999490
12.44999490 0.00000000 0.00000000 0.00000000 12.44999490 0.00000000 0.00000000 0.00000000 12.44999490
12.44999490 0.00000000 0.00000000 0.00000000 12.44999490 0.00000000 0.00000000 0.00000000 12.44999490
12.44999490 0.00000000 0.00000000 0.00000000 12.44999490 0.00000000 0.00000000 0.00000000 12.44999490
12.44999490 0.00000000 0.00000000 0.00000000 12.44999490 0.00000000 0.00000000 0.00000000 12.44999490
12.44999490 0.00000000 0.00000000 0.00000000 12.44999490 0.00000000 0.00000000 0.00000000 12.44999490
12.44999490 0.00000000 0.00000000 0.00000000 12.44999490 0.00000000 0.00000000 0.00000000 12.44999490
12.44999490 0.00000000 0.00000000 0.00000000 12.44999490 0.00000000 0.00000000 0.00000000 12.44999490
12.44999490 0.00000000 0.00000000 0.00000000 12.44999490 0.00000000 0.00000000 0.00000000 12.44999490
12.44999490 0.00000000 0.00000000 0.00000000 12.44999490 0.00000000 0.00000000 0.00000000 12.44999490
12.44999490 0.00000000 0.00000000 0.00000000 12.44999490 0.00000000 0.00000000 0.00000000 12.44999490
12.44999490 0.00000000 0.00000000 0.00000000 12.44999490 0.00000000 0.00000000 0.00000000 12.44999490
12.44999490 0.00000000 0.00000000 0.00000000 12.44999490 0.00000000 0.00000000 0.00000000 12.44999490
12.44999490 0.00000000 0.00000000 0.00000000 12.44999490 0.00000000 0.00000000 0.00000000 12.44999490
12.44999490 0.00000000 0.00000000 0.00000000 12.44999490 0.00000000 0.00000000 0.00000000 12.44999490
12.44999490 0.00000000 0.00000000 0.00000000 12.44999490 0.00000000 0.00000000 0.00000000 12.44999490
12.44999490 0.00000000 0.00000000 0.00000000 12.44999490 0.00000000 0.00000000 0.00000000 12.44999490
12.44999490 0.00000000 0.00000000 0.00000000 12.44999490 0.00000000 0.00000000 0.00000000 12.44999490
12.44999490 0.00000000 0.00000000 0.00000000 12.44999490 0.00000000 0.00000000 0.00000000 12.44999490
12.44999490 0.00000000 0.00000000 0.00000000 12.44999490 0.00000000 0.00000000 0.00000000 12.44999490
12.44999490 0.00000000 0.00000000 0.00000000 12.44999490 0.00000000 0.00000000 0.00000000 12.44999490
12.44999490 0.00000000 0.00000000 0.00000000 12.44999490 0.00000000 0.00000000 0.00000000 12.44999490
12.44999490 0.00000000 0.00000000 0.00000000 12.44999490 0.00000000 0.00000000 0.00000000 12.44999490
12.44999490 0.00000000 0.00000000 0.00000000 12.44999490 0.00000000 0.00000000 0.00000000 12.44999490
12.44999490 0.00000000 0.00000000 0.00000000 12.44999490 0.00000000 0.00000000 0.00000000 12.44999490
12.44999490 0.00000000 0.00000000 0.00000000 12.44999490 0.00000000 0.00000000 0.00000000 12.44999490
12.44999490 0.00000000 0.00000000 0.00000000 12.44999490 0.00000000 0.00000000 0.00000000 12.44999490
12.44999490 0.00000000 0.00000000 0.00000000 12.44999490 0.00000000 0.00000000 0.00000000 12.44999490
12.44999490 0.00000000 0.00000000 0.00000000 12.44999490 0.00000000 0.00000000 0.00000000 12.44999490
12.44999490 0.00000000 0.00000000 0.00000000 12.44999490 0.00000000 0.00000000 0.00000000 12.44999490
12.44999490 0.00000000 0.00000000 0.00000000 12.44999490 0.00000000 0.00000000 0.00000000 12.44999490
12.44999490 0.00000000 0.00000000 0.00000000 12.44999490 0.00000000 0.00000000 0.00000000 12.44999490
12.44999490 0.00000000 0.00000000 0.00000000 12.44999490 0.00000000 0.00000000 0.00000000 12.44999490
12.44999490 0.00000000 0.00000000 0.00000000 12.44999490 0.00000000 0.00000000 0.00000000 12.44999490
12.44999490 0.00000000 0.00000000 0.00000000 12.44999490 0.00000000 0.00000000 0.00000000 12.44999490
12.44999490 0.00000000 0.00000000 0.00000000 12.44999490 0.00000000 0.00000000 0.00000000 12.44999490
12.44999490 0.00000000 0.00000000 0.00000000 12.44999490 0.00000000 0.00000000 0.00000000 12.44999490
12.44999490 0.00000000 0.00000000 0.00000000 12.44999490 0.00000000 0.00000000 0.00000000 12.44999490
12.44999014 0.00000000 0.00000000 0.00000000 12.44999014 0.00000000 0.00000000 0.00000000 12.44999014
12.44999014 0.00000000 0.00000000 0.00000000 12.44999014 0.00000000 0.00000000 0.00000000 12.44999014
12.44999014 0.00000000 0.00000000 0.00000000 12.44999014 0.00000000 0.00000000 0.00000000 12.44999014
12.44999014 0.00000000 0.00000000 0.00000000 12.44999014 0.00000000 0.00000000 0.00000000 12.44999014
12.44999014 0.00000000 0.00000000 0.00000000 12.44999014 0.00000000 0.00000000 0.00000000 12.44999014
12.44999014 0.00000000 0.00000000 0.00000000 12.44999014 0.00000000 0.00000000 0.00000000 12.44999014
12.44999014 0.00000000 0.00000000 0.00000000 12.44999014 0.00000000 0.00000000 0.00000000 12.44999014
12.44999014 0.00000000 0.00000000 0.00000000 12.44999014 0.00000000 0.00000000 0.00000000 12.44999014
12.44999014 0.00000000 0.00000000 0.00000000 12.44999014 0.00000000 0.00000000 0.00000000 12.44999014
12.44999014 0.00000000 0.00000000 0.00000000 12.44999014 0.00000000 0.00000000 0.00000000 12.44999014
12.44999014 0.00000000 0.00000000 0.00000000 12.44999014 0.00000000 0.00000000 0.00000000 12.44999014
12.44999014 0.00000000 0.00000000 0.00000000 12.44999014 0.00000000 0.00000000 0.00000000 12.44999014
12.44999014 0.00000000 0.00000000 0.00000000 12.44999014 0.00000000 0.00000000 0.00000000 12.44999014
12.44999014 0.00000000 0.00000000 0.00000000 12.44999014 0.00000000 0.00000000 0.00000000 12.44999014
12.44999014 0.00000000 0.00000000 0.00000000 12.44999014 0.00000000 0.00000000 0.00000000 12.44999014
12.44999014 0.00000000 0.00000000 0.00000000 12.44999014 0.00000000 0.00000000 0.00000000 12.44999014
12.44999014 0.00000000 0.00000000 0.00000000 12.44999014 0.00000000 0.00000000 0.00000000 12.44999014
12.44999014 0.00000000 0.00000000 0.00000000 12.44999014 0.00000000 0.00000000 0.00000000 12.44999014
12.44999014 0.00000000 0.00000000 0.00000000 12.44999014 0.00000000 0.00000000 0.00000000 12.44999014
12.44999014 0.00000000 0.00000000 0.00000000 12.44999014 0.00000000 0.00000000 0.00000000 12.44999014
12.44999014 0.00000000 0.00000000 0.00000000 12.44999014 0.00000000 0.00000000 0.00000000 12.44999014
12.44999014 0.00000000 0.00000000 0.00000000 12.44999014 0.00000000 0.00000000 0.00000000 12.44999014
12.44999014 0.00000000 0.00000000 0.00000000 12.44999014 0.00000000 0.00000000 0.00000000 12.44999014
12.44999014 0.00000000 0.00000000 0.00000000 12.44999014 0.00000000 0.00000000 0.00000000 12.44999014
12.44999014 0.00000000 0.00000000 0.00000000 12.44999014 0.00000000 0.00000000 0.00000000 12.44999014
12.44999014 0.00000000 0.00000000 0.00000000 12.44999014 0.00000000 0.00000000 0.00000000 12.44999014
12.44999014 0.00000000 0.00000000 0.00000000 12.44999014 0.00000000 0.00000000 0.00000000 12.44999014
12.44999014 0.00000000 0.00000000 0.00000000 12.44999014 0.00000000 0.00000000 0.00000000 12.44999014
12.44999014 0.00000000 0.00000000 0.00000000 12.44999014 0.00000000 0.00000000 0.00000000 12.44999014
12.44999014 0.00000000 0.00000000 0.00000000 12.44999014 0.00000000 0.00000000 0.00000000 12.44999014
12.44999014 0.00000000 0.00000000 0.00000000 12.44999014 0.00000000 0.00000000 0.00000000 12.44999014
12.44999014 0.00000000 0.00000000 0.00000000 12.44999014 0.00000000 0.00000000 0.00000000 12.44999014
12.44999014 0.00000000 0.00000000 0.00000000 12.44999014 0.00000000 0.00000000 0.00000000 12.44999014
12.44999014 0.00000000 0.00000000 0.00000000 12.44999014 0.00000000 0.00000000 0.00000000 12.44999014
12.44999014 0.00000000 0.00000000 0.00000000 12.44999014 0.00000000 0.00000000 0.00000000 12.44999014
12.44999014 0.00000000 0.00000000 0.00000000 12.44999014 0.00000000 0.00000000 0.00000000 12.44999014
12.44999014 0.00000000 0.00000000 0.00000000 12.44999014 0.00000000 0.00000000 0.00000000 12.44999014
12.44999014 0.00000000 0.00000000 0.00000000 12.44999014 0.00000000 0.00000000 0.00000000 12.44999014
12.44999014 0.00000000 0.00000000 0.00000000 12.44999014 0.00000000 0.00000000 0.00000000 12.44999014
12.44999014 0.00000000 0.00000000 0.00000000 12.44999014 0.00000000 0.00000000 0.00000000 12.44999014
12.44999014 0.00000000 0.00000000 0.00000000 12.44999014 0.00000000 0.00000000 0.00000000 12.44999014
12.44999014 0.00000000 0.00000000 0.00000000 12.44999014 0.00000000 0.00000000 0.00000000 12.44999014
12.44999014 0.00000000 0.00000000 0.00000000 12.44999014 0.00000000 0.00000000 0.00000000 12.44999014
12.44999014 0.00000000 0.00000000 0.00000000 12.44999014 0.00000000 0.00000000 0.00000000 12.44999014
12.44999014 0.00000000 0.00000000 0.00000000 12.44999014 0.00000000 0.00000000 0.00000000 12.44999014
12.44999014 0.00000000 0.00000000 0.00000000 12.44999014 0.00000000 0.00000000 0.00000000 12.44999014
12.44999014 0.00000000 0.00000000 0.00000000 12.44999014 0.00000000 0.00000000 0.00000000 12.44999014
12.44999014 0.00000000 0.00000000 0.00000000 12.44999014 0.00000000 0.00000000 0.00000000 12.44999014
12.44999014 0.00000000 0.00000000 0.00000000 12.44999014 0.00000000 0.00000000 0.00000000 12.44999014
12.44999014 0.00000000 0.00000000 0.00000000 12.44999014 0.00000000 0.00000000 0.00000000 12.44999014
12.44999014 0.00000000 0.00000000 0.00000000 12.44999014 0.00000000 0.00000000 0.00000000 12.44999014
12.44999014 0.00000000 0.00000000 0.00000000 12.44999014 0.00000000 0.00000000 0.00000000 12.44999014
12.44999014 0.00000000 0.00000000 0.00000000 12.44999014 0.00000000 0.00000000 0.00000000 12.44999014
12.44999014 0.00000000 0.00000000 0.00000000 12.44999014 0.00000000 0.00000000 0.00000000 12.44999014
12.44999014 0.00000000 0.00000000 0.00000000 12.44999014 0.00000000 0.00000000 0.00000000 12.44999014
12.44999014 0.00000000 0.00000000 0.00000000 12.44999014 0.00000000 0.00000000 0.00000000 12.44999014
12.44999014 0.00000000 0.00000000 0.00000000 12.44999014 0.00000000 0.00000000 0.00000000 12.44999014
12.44999014 0.00000000 0.00000000 0.00000000 12.44999014 0.00000000 0.00000000 0.00000000 12.44999014
12.44999014 0.00000000 0.00000000 0.00000000 12.44999014 0.00000000 0.00000000 0.00000000 12.44999014
12.44999014 0.00000000 0.00000000 0.00000000 12.44999014 0.00000000 0.00000000 0.00000000 12.44999014
12.44999014 0.00000000 0.00000000 0.00000000 12.44999014 0.00000000 0.00000000 0.00000000 12.44999014
16.41358726 0.00000000 0.00000000 0.00000000 16.41358726 0.00000000 0.00000000 0.00000000 16.41358726
16.50308696 0.00000000 0.00000000 0.00000000 16.50308696 0.00000000 0.00000000 0.00000000 16.50308696
16.78238658 0.00000000 0.00000000 0.00000000 16.78238658 0.00000000 0.00000000 0.00000000 16.78238658
16.60548695 0.00000000 0.00000000 0.00000000 16.60548695 0.00000000 0.00000000 0.00000000 16.60548695
16.30418732 0.00000000 0.00000000 0.00000000 16.30418732 0.00000000 0.00000000 0.00000000 16.30418732
16.36318738 0.00000000 0.00000000 0.00000000 16.36318738 0.00000000 0.00000000 0.00000000 16.36318738
16.31838726 0.00000000 0.00000000 0.00000000 16.31838726 0.00000000 0.00000000 0.00000000 16.31838726
16.41948705 0.00000000 0.00000000 0.00000000 16.41948705 0.00000000 0.00000000 0.00000000 16.41948705
16.44648725 0.00000000 0.00000000 0.00000000 16.44648725 0.00000000 0.00000000 0.00000000 16.44648725
16.43008700 0.00000000 0.00000000 0.00000000 16.43008700 0.00000000 0.00000000 0.00000000 16.43008700
16.58228730 0.00000000 0.00000000 0.00000000 16.58228730 0.00000000 0.00000000 0.00000000 16.58228730
16.57208688 0.00000000 0.00000000 0.00000000 16.57208688 0.00000000 0.00000000 0.00000000 16.57208688
16.44598718 0.00000000 0.00000000 0.00000000 16.44598718 0.00000000 0.00000000 0.00000000 16.44598718
16.41378729 0.00000000 0.00000000 0.00000000 16.41378729 0.00000000 0.00000000 0.00000000 16.41378729
16.42268698 0.00000000 0.00000000 0.00000000 16.42268698 0.00000000 0.00000000 0.00000000 16.42268698
16.45728722 0.00000000 0.00000000 0.00000000 16.45728722 0.00000000 0.00000000 0.00000000 16.45728722
16.45618706 0.00000000 0.00000000 0.00000000 16.45618706 0.00000000 0.00000000 0.00000000 16.45618706
16.42898737 0.00000000 0.00000000 0.00000000 16.42898737 0.00000000 0.00000000 0.00000000 16.42898737
16.14648728 0.00000000 0.00000000 0.00000000 16.14648728 0.00000000 0.00000000 0.00000000 16.14648728
16.26338724 0.00000000 0.00000000 0.00000000 16.26338724 0.00000000 0.00000000 0.00000000 16.26338724
16.34238702 0.00000000 0.00000000 0.00000000 16.34238702 0.00000000 0.00000000 0.00000000 16.34238702
16.27368715 0.00000000 0.00000000 0.00000000 16.27368715 0.00000000 0.00000000 0.00000000 16.27368715
16.50738706 0.00000000 0.00000000 0.00000000 16.50738706 0.00000000 0.00000000 0.00000000 16.50738706
16.46158732 0.00000000 0.00000000 0.00000000 16.46158732 0.00000000 0.00000000 0.00000000 16.46158732
16.49398724 0.00000000 0.00000000 0.00000000 16.49398724 0.00000000 0.00000000 0.00000000 16.49398724
16.52868696 0.00000000 0.00000000 0.00000000 16.52868696 0.00000000 0.00000000 0.00000000 16.52868696
16.50088717 0.00000000 0.00000000 0.00000000 16.50088717 0.00000000 0.00000000 0.00000000 16.50088717
16.33598715 0.00000000 0.00000000 0.00000000 16.33598715 0.00000000 0.00000000 0.00000000 16.33598715
16.37928706 0.00000000 0.00000000 0.00000000 16.37928706 0.00000000 0.00000000 0.00000000 16.37928706
16.28428709 0.00000000 0.00000000 0.00000000 16.28428709 0.00000000 0.00000000 0.00000000 16.28428709
16.54158724 0.00000000 0.00000000 0.00000000 16.54158724 0.00000000 0.00000000 0.00000000 16.54158724
16.47208725 0.00000000 0.00000000 0.00000000 16.47208725 0.00000000 0.00000000 0.00000000 16.47208725
16.47358693 0.00000000 0.00000000 0.00000000 16.47358693 0.00000000 0.00000000 0.00000000 16.47358693
16.48528704 0.00000000 0.00000000 0.00000000 16.48528704 0.00000000 0.00000000 0.00000000 16.48528704
16.49328713 0.00000000 0.00000000 0.00000000 16.49328713 0.00000000 0.00000000 0.00000000 16.49328713
16.62888715 0.00000000 0.00000000 0.00000000 16.62888715 0.00000000 0.00000000 0.00000000 16.62888715
16.36398697 0.00000000 0.00000000 0.00000000 16.36398697 0.00000000 0.00000000 0.00000000 16.36398697
16.27088727 0.00000000 0.00000000 0.00000000 16.27088727 0.00000000 0.00000000 0.00000000 16.27088727
16.39398707 0.00000000 0.00000000 0.00000000 16.39398707 0.00000000 0.00000000 0.00000000 16.39398707
16.30788733 0.00000000 0.00000000 0.00000000 16.30788733 0.00000000 0.00000000 0.00000000 16.30788733
16.47058703 0.00000000 0.00000000 0.00000000 16.47058703 0.00000000 0.00000000 0.00000000 16.47058703
16.23198747 0.00000000 0.00000000 0.00000000 16.23198747 0.00000000 0.00000000 0.00000000 16.23198747
16.37438741 0.00000000 0.00000000 0.00000000 16.37438741 0.00000000 0.00000000 0.00000000 16.37438741
16.32938726 0.00000000 0.00000000 0.00000000 16.32938726 0.00000000 0.00000000 0.00000000 16.32938726
16.42808724 0.00000000 0.00000000 0.00000000 16.42808724 0.00000000 0.00000000 0.00000000 16.42808724
16.47358693 0.00000000 0.00000000 0.00000000 16.47358693 0.00000000 0.00000000 0.00000000 16.47358693
16.43958731 0.00000000 0.00000000 0.00000000 16.43958731 0.00000000 0.00000000 0.00000000 16.43958731
16.50948736 0.00000000 0.00000000 0.00000000 16.50948736 0.00000000 0.00000000 0.00000000 16.50948736
16.37028735 0.00000000 0.00000000 0.00000000 16.37028735 0.00000000 0.00000000 0.00000000 16.37028735
16.43518720 0.00000000 0.00000000 0.00000000 16.43518720 0.00000000 0.00000000 0.00000000 16.43518720
16.61398712 0.00000000 0.00000000 0.00000000 16.61398712 0.00000000 0.00000000 0.00000000 16.61398712
16.48308725 0.00000000 0.00000000 0.00000000 16.48308725 0.00000000 0.00000000 0.00000000 16.48308725
16.50878726 0.00000000 0.00000000 0.00000000 16.50878726 0.00000000 0.00000000 0.00000000 16.50878726
16.50248741 0.00000000 0.00000000 0.00000000 16.50248741 0.00000000 0.00000000 0.00000000 16.50248741
16.44388740 0.00000000 0.00000000 0.00000000 16.44388740 0.00000000 0.00000000 0.00000000 16.44388740
16.23838734 0.00000000 0.00000000 0.00000000 16.23838734 0.00000000 0.00000000 0.00000000 16.23838734
16.37408737 0.00000000 0.00000000 0.00000000 16.37408737 0.00000000 0.00000000 0.00000000 16.37408737
16.44568713 0.00000000 0.00000000 0.00000000 16.44568713 0.00000000 0.00000000 0.00000000 16.44568713
16.34748723 0.00000000 0.00000000 0.00000000 16.34748723 0.00000000 0.00000000 0.00000000 16.34748723
16.51578721 0.00000000 0.00000000 0.00000000 16.51578721 0.00000000 0.00000000 0.00000000 16.51578721
16.30448736 0.00000000 0.00000000 0.00000000 16.30448736 0.00000000 0.00000000 0.00000000 16.30448736
16.46688702 0.00000000 0.00000000 0.00000000 16.46688702 0.00000000 0.00000000 0.00000000 16.46688702
16.49728718 0.00000000 0.00000000 0.00000000 16.49728718 0.00000000 0.00000000 0.00000000 16.49728718
16.70008686 0.00000000 0.00000000 0.00000000 16.70008686 0.00000000 0.00000000 0.00000000 16.70008686
16.39528726 0.00000000 0.00000000 0.00000000 16.39528726 0.00000000 0.00000000 0.00000000 16.39528726
16.47998733 0.00000000 0.00000000 0.00000000 16.47998733 0.00000000 0.00000000 0.00000000 16.47998733
16.32428705 0.00000000 0.00000000 0.00000000 16.32428705 0.00000000 0.00000000 0.00000000 16.32428705
16.39418710 0.00000000 0.00000000 0.00000000 16.39418710 0.00000000 0.00000000 0.00000000 16.39418710
16.39158725 0.00000000 0.00000000 0.00000000 16.39158725 0.00000000 0.00000000 0.00000000 16.39158725
16.40678733 0.00000000 0.00000000 0.00000000 16.40678733 0.00000000 0.00000000 0.00000000 16.40678733
16.29518708 0.00000000 0.00000000 0.00000000 16.29518708 0.00000000 0.00000000 0.00000000 16.29518708
16.63498698 0.00000000 0.00000000 0.00000000 16.63498698 0.00000000 0.00000000 0.00000000 16.63498698
16.40688735 0.00000000 0.00000000 0.00000000 16.40688735 0.00000000 0.00000000 0.00000000 16.40688735
16.32888719 0.00000000 0.00000000 0.00000000 16.32888719 0.00000000 0.00000000 0.00000000 16.32888719
16.45718721 0.00000000 0.00000000 0.00000000 16.45718721 0.00000000 0.00000000 0.00000000 16.45718721
16.50188732 0.00000000 0.00000000 0.00000000 16.50188732 0.00000000 0.00000000 0.00000000 16.50188732
16.51368691 0.00000000 0.00000000 0.00000000 16.51368691 0.00000000 0.00000000 0.00000000 16.51368691
16.53798724 0.00000000 0.00000000 0.00000000 16.53798724 0.00000000 0.00000000 0.00000000 16.53798724
16.60758725 0.00000000 0.00000000 0.00000000 16.60758725 0.00000000 0.00000000 0.00000000 16.60758725
16.44788692 0.00000000 0.00000000 0.00000000 16.44788692 0.00000000 0.00000000 0.00000000 16.44788692
16.45968704 0.00000000 0.00000000 0.00000000 16.45968704 0.00000000 0.00000000 0.00000000 16.45968704
16.38008718 0.00000000 0.00000000 0.00000000 16.38008718 0.00000000 0.00000000 0.00000000 16.38008718
16.47918721 0.00000000 0.00000000 0.00000000 16.47918721 0.00000000 0.00000000 0.00000000 16.47918721
16.42058721 0.00000000 0.00000000 0.00000000 16.42058721 0.00000000 0.00000000 0.00000000 16.42058721
16.58798706 0.00000000 0.00000000 0.00000000 16.58798706 0.00000000 0.00000000 0.00000000 16.58798706
16.55738687 0.00000000 0.00000000 0.00000000 16.55738687 0.00000000 0.00000000 0.00000000 16.55738687
16.49098733 0.00000000 0.00000000 0.00000000 16.49098733 0.00000000 0.00000000 0.00000000 16.49098733
16.37388734 0.00000000 0.00000000 0.00000000 16.37388734 0.00000000 0.00000000 0.00000000 16.37388734
16.54858719 0.00000000 0.00000000 0.00000000 16.54858719 0.00000000 0.00000000 0.00000000 16.54858719
16.49228699 0.00000000 0.00000000 0.00000000 16.49228699 0.00000000 0.00000000 0.00000000 16.49228699
16.53268701 0.00000000 0.00000000 0.00000000 16.53268701 0.00000000 0.00000000 0.00000000 16.53268701
16.26298719 0.00000000 0.00000000 0.00000000 16.26298719 0.00000000 0.00000000 0.00000000 16.26298719
16.52608711 0.00000000 0.00000000 0.00000000 16.52608711 0.00000000 0.00000000 0.00000000 16.52608711
16.39898726 0.00000000 0.00000000 0.00000000 16.39898726 0.00000000 0.00000000 0.00000000 16.39898726
16.38198745 0.00000000 0.00000000 0.00000000 16.38198745 0.00000000 0.00000000 0.00000000 16.38198745
16.48988717 0.00000000 0.00000000 0.00000000 16.48988717 0.00000000 0.00000000 0.00000000 16.48988717
16.42438723 0.00000000 0.00000000 0.00000000 16.42438723 0.00000000 0.00000000 0.00000000 16.42438723
16.45488741 0.00000000 0.00000000 0.00000000 16.45488741 0.00000000 0.00000000 0.00000000 16.45488741
16.41618710 0.00000000 0.00000000 0.00000000 16.41618710 0.00000000 0.00000000 0.00000000 16.41618710
16.44878705 0.00000000 0.00000000 0.00000000 16.44878705 0.00000000 0.00000000 0.00000000 16.44878705
16.46078720 0.00000000 0.00000000 0.00000000 16.46078720 0.00000000 0.00000000 0.00000000 16.46078720
16.39408708 0.00000000 0.00000000 0.00000000 16.39408708 0.00000000 0.00000000 0.00000000 16.39408708
16.29978721 0.00000000 0.00000000 0.00000000 16.29978721 0.00000000 0.00000000 0.00000000 16.29978721
16.45508690 0.00000000 0.00000000 0.00000000 16.45508690 0.00000000 0.00000000 0.00000000 16.45508690
16.37848695 0.00000000 0.00000000 0.00000000 16.37848695 0.00000000 0.00000000 0.00000000 16.37848695
16.40468703 0.00000000 0.00000000 0.00000000 16.40468703 0.00000000 0.00000000 0.00000000 16.40468703
16.44608719 0.00000000 0.00000000 0.00000000 16.44608719 0.00000000 0.00000000 0.00000000 16.44608719
16.18028741 0.00000000 0.00000000 0.00000000 16.18028741 0.00000000 0.00000000 0.00000000 16.18028741
16.33868702 0.00000000 0.00000000 0.00000000 16.33868702 0.00000000 0.00000000 0.00000000 16.33868702
16.48108696 0.00000000 0.00000000 0.00000000 16.48108696 0.00000000 0.00000000 0.00000000 16.48108696
16.47128713 0.00000000 0.00000000 0.00000000 16.47128713 0.00000000 0.00000000 0.00000000 16.47128713
16.54108716 0.00000000 0.00000000 0.00000000 16.54108716 0.00000000 0.00000000 0.00000000 16.54108716
16.16778719 0.00000000 0.00000000 0.00000000 16.16778719 0.00000000 0.00000000 0.00000000 16.16778719
16.55328734 0.00000000 0.00000000 0.00000000 16.55328734 0.00000000 0.00000000 0.00000000 16.55328734
16.46928737 0.00000000 0.00000000 0.00000000 16.46928737 0.00000000 0.00000000 0.00000000 16.46928737
16.41658716 0.00000000 0.00000000 0.00000000 16.41658716 0.00000000 0.00000000 0.00000000 16.41658716
16.43268737 0.00000000 0.00000000 0.00000000 16.43268737 0.00000000 0.00000000 0.00000000 16.43268737
16.29838701 0.00000000 0.00000000 0.00000000 16.29838701 0.00000000 0.00000000 0.00000000 16.29838701
16.31788718 0.00000000 0.00000000 0.00000000 16.31788718 0.00000000 0.00000000 0.00000000 16.31788718
16.39198731 0.00000000 0.00000000 0.00000000 16.39198731 0.00000000 0.00000000 0.00000000 16.39198731
16.36618729 0.00000000 0.00000000 0.00000000 16.36618729 0.00000000 0.00000000 0.00000000 16.36618729
16.49618702 0.00000000 0.00000000 0.00000000 16.49618702 0.00000000 0.00000000 0.00000000 16.49618702
16.45918697 0.00000000 0.00000000 0.00000000 16.45918697 0.00000000 0.00000000 0.00000000 16.45918697
16.35198735 0.00000000 0.00000000 0.00000000 16.35198735 0.00000000 0.00000000 0.00000000 16.35198735
16.26918702 0.00000000 0.00000000 0.00000000 16.26918702 0.00000000 0.00000000 0.00000000 16.26918702
12.44999014 0.00000000 0.00000000 0.00000000 12.44999014 0.00000000 0.00000000 0.00000000 12.44999014
12.44999014 0.00000000 0.00000000 0.00000000 12.44999014 0.00000000 0.00000000 0.00000000 12.44999014
12.44999014 0.00000000 0.00000000 0.00000000 12.44999014 0.00000000 0.00000000 0.00000000 12.44999014
12.44999014 0.00000000 0.00000000 0.00000000 12.44999014 0.00000000 0.00000000 0.00000000 12.44999014
12.44999014 0.00000000 0.00000000 0.00000000 12.44999014 0.00000000 0.00000000 0.00000000 12.44999014
12.44999014 0.00000000 0.00000000 0.00000000 12.44999014 0.00000000 0.00000000 0.00000000 12.44999014
12.44999014 0.00000000 0.00000000 0.00000000 12.44999014 0.00000000 0.00000000 0.00000000 12.44999014
12.44999014 0.00000000 0.00000000 0.00000000 12.44999014 0.00000000 0.00000000 0.00000000 12.44999014
12.44999014 0.00000000 0.00000000 0.00000000 12.44999014 0.00000000 0.00000000 0.00000000 12.44999014
12.44999014 0.00000000 0.00000000 0.00000000 12.44999014 0.00000000 0.00000000 0.00000000 12.44999014
12.44999014 0.00000000 0.00000000 0.00000000 12.44999014 0.00000000 0.00000000 0.00000000 12.44999014
12.44999014 0.00000000 0.00000000 0.00000000 12.44999014 0.00000000 0.00000000 0.00000000 12.44999014
12.44999014 0.00000000 0.00000000 0.00000000 12.44999014 0.00000000 0.00000000 0.00000000 12.44999014
12.44999014 0.00000000 0.00000000 0.00000000 12.44999014 0.00000000 0.00000000 0.00000000 12.44999014
12.44999014 0.00000000 0.00000000 0.00000000 12.44999014 0.00000000 0.00000000 0.00000000 12.44999014
12.44999014 0.00000000 0.00000000 0.00000000 12.44999014 0.00000000 0.00000000 0.00000000 12.44999014
12.44999014 0.00000000 0.00000000 0.00000000 12.44999014 0.00000000 0.00000000 0.00000000 12.44999014
12.44999014 0.00000000 0.00000000 0.00000000 12.44999014 0.00000000 0.00000000 0.00000000 12.44999014
12.44999014 0.00000000 0.00000000 0.00000000 12.44999014 0.00000000 0.00000000 0.00000000 12.44999014
12.44999014 0.00000000 0.00000000 0.00000000 12.44999014 0.00000000 0.00000000 0.00000000 12.44999014
12.44999014 0.00000000 0.00000000 0.00000000 12.44999014 0.00000000 0.00000000 0.00000000 12.44999014
12.44999014 0.00000000 0.00000000 0.00000000 12.44999014 0.00000000 0.00000000 0.00000000 12.44999014
12.44999014 0.00000000 0.00000000 0.00000000 12.44999014 0.00000000 0.00000000 0.00000000 12.44999014
12.44999014 0.00000000 0.00000000 0.00000000 12.44999014 0.00000000 0.00000000 0.00000000 12.44999014
12.44999014 0.00000000 0.00000000 0.00000000 12.44999014 0.00000000 0.00000000 0.00000000 12.44999014
12.44999014 0.00000000 0.00000000 0.00000000 12.44999014 0.00000000 0.00000000 0.00000000 12.44999014
12.44999014 0.00000000 0.00000000 0.00000000 12.44999014 0.00000000 0.00000000 0.00000000 12.44999014
12.44999014 0.00000000 0.00000000 0.00000000 12.44999014 0.00000000 0.00000000 0.00000000 12.44999014
12.44999014 0.00000000 0.00000000 0.00000000 12.44999014 0.00000000 0.00000000 0.00000000 12.44999014
12.44999014 0.00000000 0.00000000 0.00000000 12.44999014 0.00000000 0.00000000 0.00000000 12.44999014
12.44999014 0.00000000 0.00000000 0.00000000 12.44999014 0.00000000 0.00000000 0.00000000 12.44999014
12.44999014 0.00000000 0.00000000 0.00000000 12.44999014 0.00000000 0.00000000 0.00000000 12.44999014
12.44999014 0.00000000 0.00000000 0.00000000 12.44999014 0.00000000 0.00000000 0.00000000 12.44999014
12.44999014 0.00000000 0.00000000 0.00000000 12.44999014 0.00000000 0.00000000 0.00000000 12.44999014
12.44999014 0.00000000 0.00000000 0.00000000 12.44999014 0.00000000 0.00000000 0.00000000 12.44999014
12.44999014 0.00000000 0.00000000 0.00000000 12.44999014 0.00000000 0.00000000 0.00000000 12.44999014
12.44999014 0.00000000 0.00000000 0.00000000 12.44999014 0.00000000 0.00000000 0.00000000 12.44999014
12.44999014 0.00000000 0.00000000 0.00000000 12.44999014 0.00000000 0.00000000 0.00000000 12.44999014
12.44999014 0.00000000 0.00000000 0.00000000 12.44999014 0.00000000 0.00000000 0.00000000 12.44999014
12.44999014 0.00000000 0.00000000 0.00000000 12.44999014 0.00000000 0.00000000 0.00000000 12.44999014
12.44999014 0.00000000 0.00000000 0.00000000 12.44999014 0.00000000 0.00000000 0.00000000 12.44999014
12.44999014 0.00000000 0.00000000 0.00000000 12.44999014 0.00000000 0.00000000 0.00000000 12.44999014
12.44999014 0.00000000 0.00000000 0.00000000 12.44999014 0.00000000 0.00000000 0.00000000 12.44999014
12.44999014 0.00000000 0.00000000 0.00000000 12.44999014 0.00000000 0.00000000 0.00000000 12.44999014
12.44999014 0.00000000 0.00000000 0.00000000 12.44999014 0.00000000 0.00000000 0.00000000 12.44999014
12.44999014 0.00000000 0.00000000 0.00000000 12.44999014 0.00000000 0.00000000 0.00000000 12.44999014
12.44999014 0.00000000 0.00000000 0.00000000 12.44999014 0.00000000 0.00000000 0.00000000 12.44999014
12.44999014 0.00000000 0.00000000 0.00000000 12.44999014 0.00000000 0.00000000 0.00000000 12.44999014
12.44999014 0.00000000 0.00000000 0.00000000 12.44999014 0.00000000 0.00000000 0.00000000 12.44999014
12.44999014 0.00000000 0.00000000 0.00000000 12.44999014 0.00000000 0.00000000 0.00000000 12.44999014
12.44999014 0.00000000 0.00000000 0.00000000 12.44999014 0.00000000 0.00000000 0.00000000 12.44999014
12.44999014 0.00000000 0.00000000 0.00000000 12.44999014 0.00000000 0.00000000 0.00000000 12.44999014
12.44999014 0.00000000 0.00000000 0.00000000 12.44999014 0.00000000 0.00000000 0.00000000 12.44999014
12.44999014 0.00000000 0.00000000 0.00000000 12.44999014 0.00000000 0.00000000 0.00000000 12.44999014
12.44999014 0.00000000 0.00000000 0.00000000 12.44999014 0.00000000 0.00000000 0.00000000 12.44999014
12.44999014 0.00000000 0.00000000 0.00000000 12.44999014 0.00000000 0.00000000 0.00000000 12.44999014
12.44999014 0.00000000 0.00000000 0.00000000 12.44999014 0.00000000 0.00000000 0.00000000 12.44999014
12.44999014 0.00000000 0.00000000 0.00000000 12.44999014 0.00000000 0.00000000 0.00000000 12.44999014
13.72128920 0.00000000 0.00000000 0.00000000 13.72128920 0.00000000 0.00000000 0.00000000 13.72128920
13.65788956 0.00000000 0.00000000 0.00000000 13.65788956 0.00000000 0.00000000 0.00000000 13.65788956
13.68418913 0.00000000 0.00000000 0.00000000 13.68418913 0.00000000 0.00000000 0.00000000 13.68418913
13.68208936 0.00000000 0.00000000 0.00000000 13.68208936 0.00000000 0.00000000 0.00000000 13.68208936
13.62898909 0.00000000 0.00000000 0.00000000 13.62898909 0.00000000 0.00000000 0.00000000 13.62898909
13.62938915 0.00000000 0.00000000 0.00000000 13.62938915 0.00000000 0.00000000 0.00000000 13.62938915
13.61468914 0.00000000 0.00000000 0.00000000 13.61468914 0.00000000 0.00000000 0.00000000 13.61468914