-2.998760346325000137e+04
-2.998704397163999965e+04
-2.998790697658000136e+04
-2.998705547021999882e+04
-2.998703040035999948e+04
-2.998779771574999904e+04
-2.998707391193000149e+04
-2.998924864167999840e+04
-2.998904439551999894e+04
-2.998798363148999852e+04
-2.998775999394999963e+04
-2.998861263079999844e+04
-2.998938753817000179e+04
-2.998896974567999860e+04
-2.998825593211999876e+04
-2.998837091660000078e+04
-2.998757187313000031e+04
-2.998727525122999941e+04
-2.998873655571999916e+04
-2.998716802145999827e+04
-2.998826447283000016e+04
-2.998774947796999913e+04
-2.998870314720000169e+04
-2.998629976471999908e+04
-2.998638737140000012e+04
-2.998634397398000146e+04
-2.998833042140999896e+04
-2.998745481283999834e+04
-2.998828477823999856e+04
-2.998879236383999887e+04
-2.998622782092000125e+04
-2.998699959243999911e+04
-2.998661426900000151e+04
-2.998881734376999884e+04
-2.998765301574999830e+04
-2.998869309531000181e+04
-2.998866713100999914e+04
-2.998885018289000072e+04
-2.998675468484000157e+04
-2.998762101338000139e+04
-2.998751327461999972e+04
-2.998760958377000134e+04
-2.998788125650000075e+04
-2.998521422593000170e+04
-2.998606628550000096e+04
-2.998551666168999873e+04
-2.998335435503999906e+04
-2.998445806667999932e+04
-2.998551130743999965e+04
-2.998536610633999953e+04
-2.998503782833000150e+04
-2.998263131422999868e+04
-2.998474878045000150e+04
-2.998367110425999999e+04
-2.998465960502999951e+04
-2.998338004491000174e+04
-2.998399819749000017e+04
-2.998446234471999924e+04
-2.998492333461000089e+04
-2.998599366794000161e+04
-2.998358170828999937e+04
-2.998457469947999925e+04
-2.998348114096000063e+04
-2.998412016944000061e+04
-2.998466630611000073e+04
-2.998380401722999886e+04
-2.998507110459999967e+04
-2.998438589362000130e+04
-2.998570857646000150e+04
-2.998497059930999967e+04
-2.998670955432999835e+04
-2.998740900857000088e+04
-2.998618591237000146e+04
-2.998569532926999818e+04
-2.998499127398999917e+04
-2.998621140481999828e+04
-2.998591852870000002e+04
-2.998526757468999858e+04
-2.998547603249000167e+04
-2.998567173589999948e+04
-2.998608823666000171e+04
-2.998631619264999972e+04
-2.998473656226000094e+04
-2.998487850370000160e+04
-2.998515445909999835e+04
-2.998479250467000020e+04
-2.998481482495000091e+04
-2.998413918815999932e+04
-2.998382321759999832e+04
-2.998545981001000109e+04
-2.998519401289999951e+04
-2.998465006811000057e+04
-2.998577677133999896e+04
-2.998449723517000166e+04
-2.998443795908999891e+04
-2.998459810183000081e+04
-2.998357780563000051e+04
-2.998321158051000020e+04
-2.998399285289999898e+04
-2.998528934939000101e+04
-2.998453700354000102e+04
-2.998515475733000130e+04
-2.998359750436999821e+04
-2.998425412502000108e+04
-2.997617653581999912e+04
-2.997626071700000102e+04
-2.997518191984000077e+04
-2.997548498757999914e+04
-2.997514276004999920e+04
-2.997552666767999835e+04
-2.997653268754999954e+04
-2.997821038304999820e+04
-2.997730995374000122e+04
-2.997671049742999821e+04
-2.997739161432000037e+04
-2.997671031144000153e+04
-2.997729950973000086e+04
-2.997724519810000129e+04
-2.997824839083999905e+04
-2.997804725930000131e+04
-2.997509257544000138e+04
-2.997713555466999969e+04
-2.997780769751999833e+04
-2.997739978237000105e+04
-2.997786157308999827e+04
-2.997788501733999874e+04
-2.997684522173000005e+04
-2.997641553392000060e+04
-2.997617930676000105e+04
-2.997641366858000038e+04
-2.997686217238999961e+04
-2.997717452507000053e+04
-2.997807339897999918e+04
-2.997763323722999849e+04
-2.997756168568000066e+04
-2.997836323708000054e+04
-2.997637355748999835e+04
-2.997656006997000077e+04
-2.997724420638000083e+04
-2.997691160814999967e+04
-2.997740288800000053e+04
-2.997780677790999835e+04
-2.997811686048000047e+04
-2.997786349490000066e+04
-2.997779423890000180e+04
-2.997785752308000156e+04
-2.997652092284000173e+04
-2.997743020959999922e+04
-2.997760193746000004e+04
-2.997664158048999889e+04
-2.997663520214000164e+04
-2.997652782759999900e+04
-2.997845933956999943e+04
-2.997697317121000015e+04
-2.997668943049999871e+04
-2.997689660990999982e+04
-2.997727021966000029e+04
-2.997758235953999974e+04
-2.997774453156999880e+04
-2.997705894479999915e+04
-2.997738436084999921e+04
-2.997709584140999868e+04
-2.997817933157999869e+04
-2.997716324199999872e+04
-2.997790264829000080e+04
-2.997743517867999981e+04
-2.997536350433999905e+04
-2.997619582951999837e+04
-2.997871315726999819e+04
-2.997649171276999914e+04
-2.997734849160000158e+04
-2.997824758728999950e+04
-2.997770721562999825e+04
-2.997775397255999997e+04
-2.997841098233999946e+04
-2.997686731344000145e+04
-2.997771980130999873e+04
-2.997899576788999912e+04
-2.997884091831000114e+04
-2.997859285663999981e+04
-2.997839167435000127e+04
-2.997784832059999826e+04
-2.997701230800000121e+04
-2.997725231686999905e+04
-2.997620165982999970e+04
-2.997612517377000040e+04
-2.997638929166000162e+04
-2.997788538591999895e+04
-2.997722132934999900e+04
-2.997750303681999867e+04
-2.997773610230000122e+04
-2.997734271231000093e+04
-2.997712805834000028e+04
-2.997874545569999827e+04
-2.997741764868999962e+04
-2.997820903186999931e+04
-2.997744029999999839e+04
-2.997795954486999835e+04
-2.997769408871999985e+04
-2.997692219311000008e+04
-2.997757462170999861e+04
-2.997644755140000052e+04
-2.997740488313999958e+04
-2.997717352926999956e+04
-2.997799463749999995e+04
-2.997853403226999944e+04
-2.997848423378000007e+04
-2.997787695896000150e+04
-2.997855483292999998e+04
-2.997803238214999874e+04
-2.997714650099999926e+04
-2.997758140184000149e+04
-2.997792246606999834e+04
-2.997654633747000116e+04
-2.997693123096999989e+04
-2.997668923240000004e+04
-2.997998854112000117e+04
-2.997797282919999998e+04
-2.997797574258999884e+04
-2.997841621998999835e+04
-2.997824472152000089e+04
-2.997724815433999902e+04
-2.997726628965000054e+04
-2.997697987949999879e+04
-2.997779517620000115e+04
-2.997727218690000154e+04
-2.997747110751999935e+04
-2.997802130684000076e+04
-2.997829190975999882e+04
-2.998207940166999833e+04
-2.998227601054000115e+04
-2.998212842925999939e+04
-2.998357524763000038e+04
-2.998223691646999941e+04
-2.998305287971000143e+04
-2.998398630529000002e+04
-2.998256581993000145e+04
-2.998206391376000101e+04
-2.998224383877999935e+04
-2.998318076659999861e+04
-2.998180512834999899e+04
-2.998280364222999924e+04
-2.998333726532999935e+04
-2.998367399832999945e+04
-2.998177065476999996e+04
-2.998145122659000117e+04
-2.998153636098000061e+04
-2.998369141388999924e+04
-2.998415251304000049e+04
-2.998318219533999945e+04
-2.998137282102999961e+04
-2.998095154086999901e+04
-2.998198928542000067e+04
-2.998278500826999880e+04
-2.998224191371000052e+04
-2.998140628873999958e+04
-2.998269480766999914e+04
-2.998328210591999959e+04
-2.998263923941000030e+04
-2.998320737322000059e+04
-2.998264305880000029e+04
-2.998196281104000082e+04
-2.998287280271000054e+04
-2.998156679325000005e+04
-2.998255868456000098e+04
-2.998339972173999922e+04
-2.998278100356999857e+04
-2.998362384771999859e+04
-2.998238622050000049e+04
-2.998255743882000024e+04
-2.998284272894999958e+04
-2.998280282072000045e+04
-2.998321533732000171e+04
-2.998336624777999896e+04
-2.998324701560000176e+04
-2.998242561552999905e+04
-2.998285231063000174e+04
-2.998409642872000040e+04
-2.998219646822999857e+04
-2.998346356388999993e+04
-2.998369171771000038e+04
-2.998241971078999995e+04
-2.998297007855999982e+04
-2.998220779224999933e+04
-2.998200388051999835e+04
-2.998227465310000116e+04
-2.998253371279999919e+04
-2.998648404817999835e+04
-2.998793485220000002e+04
-2.998766757806000169e+04
-2.998830418459000066e+04
-2.998698737614999845e+04
-2.998654660963000060e+04
-2.998706066569000177e+04
-2.998629784060000020e+04
-2.998655152808999992e+04
-2.998732680620999963e+04
-2.998682657911999922e+04
-2.998722904043000017e+04
-2.998639014410000163e+04
-2.998594760925000082e+04
-2.998562495801000114e+04
-2.998674429851999957e+04
-2.998652518282999881e+04
-2.998684943220000059e+04
-2.998657163227999990e+04
-2.998711204625000028e+04
-2.998693379474000176e+04
-2.998633848545000001e+04
-2.998669692905999909e+04
-2.998737180978000106e+04
-2.998748910763000094e+04
-2.998741918195999824e+04
-2.998699536704999991e+04
-2.998697835842999848e+04
-2.998720059907999894e+04
-2.998694764126000155e+04
-2.998722531968000112e+04
-2.998763041886000065e+04
-2.998678349421999883e+04
-2.998713725680000061e+04
-2.998652769008999894e+04
-2.998697063243999946e+04
-2.998840434362000087e+04
-2.998636326673000076e+04
-2.998780636352999863e+04
-2.998720536910000010e+04
-2.998638632919999873e+04
-2.998719726989999981e+04
-2.998688799374000155e+04
-2.998647775854000065e+04
-2.998753196789000140e+04
-2.998816434278000088e+04
-2.998737640224999996e+04
-2.998749481468000158e+04
-2.998861533902000156e+04
-2.998801068519999899e+04
-2.998776896703999955e+04
-2.998821519107999848e+04
-2.998671509457000138e+04
-2.998735845850999976e+04
-2.998681053256000087e+04
-2.998707532310999886e+04
-2.998814423096999963e+04
-2.998452816582000014e+04
-2.998578789889999825e+04
-2.998558065935999912e+04
-2.998552221513000040e+04
-2.998549771521000002e+04
-2.998523035425999842e+04
-2.998642038399000012e+04
-2.998621378637000089e+04
-2.998688729072999922e+04
-2.998810733462999997e+04
-2.998696053020999898e+04
-2.998869838126000104e+04
-2.998698137725999914e+04
-2.998631653985999947e+04
-2.998809700191999946e+04
-2.998638813672000106e+04
-2.998790391625000120e+04
-2.998685634647999905e+04
-2.998755508533000102e+04
-2.998617630375999943e+04
-2.998910470278000139e+04
-2.998824640880999868e+04
-2.998814900752000176e+04
-2.998694665199000156e+04
-2.998765163857999869e+04
-2.998767454268000074e+04
-2.998506895938999878e+04
-2.998562930938999853e+04
-2.997649171276999914e+04
-2.997734849160000158e+04
-2.997824758728999950e+04
-2.997770721562999825e+04
-2.997775397255999997e+04
-2.997841098233999946e+04
-2.997686731344000145e+04
-2.997771980130999873e+04
-2.997899576788999912e+04
-2.997884091831000114e+04
-2.997859285663999981e+04
-2.997839167435000127e+04
-2.997784832059999826e+04
-2.997701230800000121e+04
-2.997725231686999905e+04
-2.997620165982999970e+04
-2.997612517377000040e+04
-2.997638929166000162e+04
-2.997788538591999895e+04
-2.997722132934999900e+04
-2.997750303681999867e+04
-2.997773610230000122e+04
-2.997734271231000093e+04
-2.997712805834000028e+04
-2.997874545569999827e+04
-2.997741764868999962e+04
-2.997820903186999931e+04
-2.997744029999999839e+04
-2.997795954486999835e+04
-2.997769408871999985e+04
-2.997692219311000008e+04
-2.997757462170999861e+04
-2.997644755140000052e+04
-2.997740488313999958e+04
-2.997717352926999956e+04
-2.997799463749999995e+04
-2.997853403226999944e+04
-2.997848423378000007e+04
-2.997787695896000150e+04
-2.997855483292999998e+04
-2.997803238214999874e+04
-2.997714650099999926e+04
-2.997758140184000149e+04
-2.997792246606999834e+04
-2.997654633747000116e+04
-2.997693123096999989e+04
-2.997668923240000004e+04
-2.997998854112000117e+04
-2.997797282919999998e+04
-2.997797574258999884e+04
-2.997841621998999835e+04
-2.997824472152000089e+04
-2.997724815433999902e+04
-2.997726628965000054e+04
-2.997697987949999879e+04
-2.997779517620000115e+04
-2.997727218690000154e+04
-2.997747110751999935e+04
-2.997802130684000076e+04
-2.997829190975999882e+04
-2.998463937960999829e+04
-2.998620387992000178e+04
-2.998637413509999897e+04
-2.998700230079000175e+04
-2.998692877872000099e+04
-2.998729433567000160e+04
-2.998711502331999873e+04
-2.998705623976000061e+04
-2.998646363624000151e+04
-2.998646197471000050e+04
-2.998626654912999948e+04
-2.998673822248999932e+04
-2.998635496875000172e+04
-2.998638025860999915e+04
-2.998591931811000177e+04
-2.998677028445000178e+04
-2.998658279399000094e+04
-2.998623002885000096e+04
-2.998668226647000120e+04
-2.998603040889999829e+04
-2.998596898448000138e+04
-2.998667287514000054e+04
-2.998640724088999923e+04
-2.998724263728000005e+04
-2.998763476683000044e+04
-2.998727013521000117e+04
-2.998663929070000086e+04
-2.998800664975000109e+04
-2.998727056434000042e+04
-2.998795953743000064e+04
-2.998728592421999929e+04
-2.998692527526000049e+04
-2.998845703208999839e+04
-2.998847936774999835e+04
-2.998828878443999929e+04
-2.998877301816999898e+04
-2.998941569284000070e+04
-2.998886542521999945e+04
-2.998909457538000061e+04
-2.998960758107999936e+04
-2.998903631835999840e+04
-2.998995206782999958e+04
-2.999034428404999926e+04
-2.998871314548000009e+04
-2.998937556514999960e+04
-2.998993583093000052e+04
-2.998972204812999917e+04
-2.998910743752000053e+04
-2.998915088540999932e+04
-2.998950080193000031e+04
-2.999041780678999930e+04
-2.999078884357000061e+04
-2.998938833247000002e+04
-2.999140576660000079e+04
-2.998993800199000179e+04
-2.999002195879999999e+04
-2.999057533356999920e+04
-2.999064714158000061e+04
-2.999185875144999955e+04
-2.999039870955999868e+04
-2.999079133749000175e+04
-2.999138851063000038e+04
-2.998972195356999873e+04
-2.999091586921999988e+04
-2.998996303973999966e+04
-2.999152019935999851e+04
-2.998996317769999951e+04
-2.999025040432999958e+04
-2.999006920499999978e+04
-2.998970654932999969e+04
-2.999021970361000058e+04
-2.999045331874999829e+04
-2.998986511013999916e+04
-2.998958236849999957e+04
-2.999023687386999882e+04
-2.999074575568000000e+04
-2.999011654452999937e+04
-2.999066046686999834e+04
-2.998994953702999919e+04
-2.998967561950000163e+04
-2.999021716736999952e+04
-2.998741845637000006e+04
-2.999009269701000085e+04
-2.998908997488000023e+04
-2.998930435606000174e+04
-2.998867152306999924e+04
-2.998914388636999865e+04
-2.998994122571999833e+04
-2.998980075750000105e+04
-2.998957454589999907e+04
-2.998887158927999917e+04
-2.998992397450999852e+04
-2.998993535677000182e+04
-2.998889332043000104e+04
-2.998861782926999877e+04
-2.998786812768000163e+04
-2.998965827074000117e+04
-2.998908388660000128e+04
-2.998853550390999953e+04
-2.998697262947999843e+04
-2.998837375243000133e+04
-2.998861585670999921e+04
-2.998760605269000007e+04
-2.998863460495999971e+04
-2.998758215414000006e+04
-2.998842800242999874e+04
-2.998868060256000172e+04
-2.998919743268000093e+04
-2.999088410482000108e+04
-2.998854446951999853e+04
-2.998780938303999937e+04
-2.998981765046999863e+04
-2.998968232071999955e+04
-2.998989487722999911e+04
-2.998938323223000043e+04
-2.998993087776999892e+04
-2.998834194461999869e+04
-2.998749229734999972e+04
-2.998863438590000078e+04
-2.998789463810999951e+04
-2.998904466070000126e+04
-2.998888473101999989e+04
-2.998878281903999959e+04
-2.998812683268999899e+04
-2.998770680532999904e+04
-2.998846711540999968e+04
-2.998810289809000096e+04
-2.998742776824999964e+04
-2.998844207861000177e+04
-2.998899860378000085e+04
-2.999061450953999883e+04
-2.999045643704000031e+04
-2.998811482279999836e+04
-2.998917466028000126e+04
-2.998988498112999878e+04
-2.998929401816999962e+04
-2.998851396649999879e+04
-2.998904482953999832e+04
-2.999076929721000124e+04
-2.998977493687999959e+04
-2.998946459076999963e+04
-2.999017716416999974e+04
-2.999030843508000180e+04
-2.998999900409000111e+04
-2.999047339233000093e+04
-2.999012275812000007e+04
-2.998805891073000021e+04
-2.998817569101999834e+04
-2.998737190162000115e+04
-2.998942601697999999e+04
-2.999072059711000111e+04
-2.998963122709999880e+04
-2.999066058958999929e+04
-2.999100240104999830e+04
-2.999008224075000180e+04
-2.999120781811000052e+04
-2.999100752074000047e+04
-2.999046105181999883e+04
-2.999072672770999998e+04
-2.999005295095000110e+04
-2.999041709943000023e+04
-2.998820377862000169e+04
-2.998918991634999838e+04
-2.999067604389999906e+04
-2.999032478328000070e+04
-2.999278459483999904e+04
-2.999060619279000093e+04
-2.999096406768000088e+04
-2.999108614262999981e+04
-2.999194247941000140e+04
-2.998944721506999849e+04
-2.998992129229000057e+04
-2.998979049500000110e+04
-2.998914779610999904e+04
-2.998996352327999921e+04
-2.998821581476999927e+04
-2.998920819085000039e+04
-2.998596865999000147e+04
-2.998421994763999828e+04
-2.998677302110000164e+04
-2.998573158206000153e+04
-2.998578271282000060e+04
-2.998511210442000083e+04
-2.998651662552999915e+04
-2.998584303245000046e+04
-2.998598603976999948e+04
-2.998610263053000017e+04
-2.998553261342000042e+04
-2.998595942021999872e+04
-2.998654191266999987e+04
-2.998505373229999896e+04
-2.998595599812000000e+04
-2.998554823329999999e+04
-2.998718162537999888e+04
-2.998539360998999837e+04
-2.998645503743000154e+04
-2.998641054258000077e+04
-2.998525616005999836e+04
-2.998633690800000113e+04
-2.998634470420000071e+04
-2.998656653028000073e+04
-2.998666778673999943e+04
-2.998575609163999980e+04
-2.998584780342999875e+04
-2.998655682329000047e+04
-2.998562700132000100e+04
-2.998567776444999981e+04
-2.998628683073000138e+04
-2.998735616989000118e+04
-2.998628206765000141e+04
-2.998733654966000177e+04
-2.998713688208999883e+04
-2.998758059398000114e+04
-2.998672756799999843e+04
-2.998701251268000124e+04
-2.998666260351000165e+04
-2.998653000388000146e+04
-2.998693007302999831e+04
-2.998635493991000112e+04
-2.998708554290000029e+04
-2.998605779092000012e+04
-2.998556293834000098e+04
-2.998551269359000071e+04
-2.998685498916999859e+04
-2.998535647868000160e+04
-2.998566133964999972e+04
-2.998687125396999909e+04
-2.998733258114999990e+04
-2.998739803721000135e+04
-2.998671011788000033e+04
-2.998744019323999964e+04
-2.998708901521000007e+04
-2.998703895808000016e+04
-2.998644169011000122e+04
-2.998725135976000092e+04
-2.998696316031999959e+04
-2.998694027391000054e+04
-2.998710456462000002e+04
-2.998777348386000085e+04
-2.998856409859999985e+04
-2.998778190225000071e+04
-2.998734398720999889e+04
-2.998709092068999962e+04
-2.998754240346000006e+04
-2.998740116176000083e+04
-2.998707058927999969e+04
-2.998656055751000167e+04
-2.998602099879000161e+04
-2.998689943898999991e+04
-2.998772934249000173e+04
-2.998758794730999944e+04
-2.998849843301000146e+04
-2.998685114691999843e+04
-2.998651057833999948e+04
-2.998706214340999941e+04
-2.998669300926000142e+04
-2.998833211260000098e+04
-2.998818763396999930e+04
-2.998807623840000088e+04
-2.998738740082000004e+04
-2.998772236590000102e+04
-2.998739973656000075e+04
-2.998892437639000127e+04
-2.998720232481999847e+04
-2.998627575774000070e+04
-2.998709905159000118e+04
-2.998557889550999971e+04
-2.998531646895000085e+04
-2.998523190462999992e+04
-2.998567754608000178e+04
-2.998494812556000034e+04
-2.998516855324000062e+04
-2.998652391722999891e+04
-2.998724615203999929e+04
-2.998555028001000028e+04
-2.998676411223000105e+04
-2.998623351489999914e+04
-2.998629988812000011e+04
-2.998653081899999961e+04
-2.998715088684999864e+04
-2.998586167144000137e+04
-2.998660264224999992e+04
-2.998678643509999893e+04
-2.998708516044000135e+04
-2.998684390652000002e+04
-2.998759926058999918e+04
-2.998658112959999926e+04
-2.998748328766000122e+04
-2.998691599861999930e+04
-2.998657944752999902e+04
-2.998598184119000143e+04
-2.998738177337000161e+04
-2.998483157452000160e+04
-2.998607186056999853e+04
-2.998765909476999877e+04
-2.998702345342999979e+04
-2.998673592597999959e+04
-2.998667477530999895e+04
-2.998586900396000055e+04
-2.998512150595999992e+04
-2.998592828399000064e+04
-2.998632796605999829e+04
-2.998633958165999866e+04
-2.998713046251999913e+04
-2.998604516836000039e+04
-2.998530801463999887e+04
-2.998640528737999921e+04
-2.998497168136999971e+04
-2.998763838214000134e+04
-2.998901606669000103e+04
-2.998565025018999950e+04
-2.998671492450000005e+04
-2.998765186226000151e+04
-2.998739992378000170e+04
-2.998673022465000031e+04
-2.998619257058999938e+04
-2.998692938390999916e+04
-2.998718625663000057e+04
-2.998732072065000102e+04
-2.998747609840999939e+04
-2.998842215646999830e+04
-2.998716988951999883e+04
-2.998889697003000038e+04
-2.998925290800999937e+04
-2.998790101388000039e+04
-2.998895157975999973e+04
-2.998798484226000073e+04
-2.998632640698999967e+04
-2.998916895636999834e+04
-2.998864954238000064e+04
-2.998852587720000156e+04
-2.998987941870999930e+04
-2.998757578341000044e+04
-2.998828971915000147e+04
-2.998815270515000157e+04
-2.998853752258999884e+04
-2.998911067240999910e+04
-2.998783103896000102e+04
-2.998817507658999966e+04
-2.998796476338000139e+04
-2.998951173764000123e+04
-2.998977426271999866e+04
-2.998719331607999993e+04
-2.998714812380000149e+04
-2.998891713802999948e+04
-2.998726530342000115e+04
-2.998821505257999888e+04
-2.998789099314999839e+04
-2.998818417063000015e+04
-2.998740975320999860e+04
-2.998771216678999917e+04
-2.998862438870999904e+04
-2.998815564056999938e+04
-2.998876585966999846e+04
-2.998895099525999831e+04
-2.998975216052999895e+04
-2.998936113086999831e+04
-2.998822894385999825e+04
-2.998981957677000173e+04
-2.998916054681999958e+04
-2.998807100999999966e+04
-2.998856699442999889e+04
-2.998816080176000105e+04
-2.998821621790000063e+04
-2.998850172993999877e+04
-2.998840895853999973e+04
-2.998749792575999891e+04
-2.998899516180999854e+04
-2.998935618084000089e+04
-2.998879048121999949e+04
-2.998815518533000068e+04
-2.998747077694999825e+04
-2.998924191298000005e+04
-2.998883390285000132e+04
-2.998878236692000064e+04
-2.998783210754999891e+04
-2.998887326590999874e+04
-2.998907889983999848e+04
-2.998823970148000080e+04
-2.998887143389999983e+04
-2.998770930538000175e+04
-2.998885608014000172e+04
-2.998973507708000034e+04
-2.998953425630000129e+04
-2.998855940353999904e+04
-2.998811080681000021e+04
-2.998787858134999988e+04
-2.998958151813999939e+04
-2.998706558157000109e+04
-2.998548092741000073e+04
-2.998527562640999895e+04
-2.998461671266000121e+04
-2.998443816330999834e+04
-2.998649297256999853e+04
-2.998571649469999829e+04
-2.998447425446999841e+04
-2.998650272689999838e+04
-2.998522737462000077e+04
-2.998656720593999853e+04
-2.998520036744000026e+04
-2.998590261344000101e+04
-2.998672150884000075e+04
-2.998452312517999962e+04
-2.998451849855999899e+04
-2.998547919922000074e+04
-2.998501670943000136e+04
-2.998443218836999949e+04
-2.998547954725000091e+04
-2.998509549826000148e+04
-2.998360202446000039e+04
-2.998410370763000174e+04
-2.998491054335000081e+04
-2.998430464950999885e+04
-2.998416138095999850e+04
-2.998569130048000079e+04
-2.998508471356999871e+04
-2.998599539015000119e+04
-2.998543080062000081e+04
-2.998602571955999883e+04
-2.998603490545000022e+04
-2.998624283547999948e+04
-2.998509854470999926e+04
-2.998373880757000006e+04
-2.998480430311999953e+04
-2.998519365983000171e+04
-2.998630293824999899e+04
-2.998579518462000124e+04
-2.998719833971000116e+04
-2.998699044096999933e+04
-2.998630969606000144e+04
-2.998772887568000078e+04
-2.998695387267000115e+04
-2.998725227964000078e+04
-2.998660344866000014e+04
-2.998595617661999859e+04
-2.998562192054000116e+04
-2.998693477299000006e+04
-2.998539176165000026e+04
-2.998644371640000099e+04
-2.998733693905000109e+04
-2.998590253696999935e+04
-2.998692030046999935e+04
-2.998835320973000125e+04
-2.998878804606999984e+04
-2.998671858838000117e+04
-2.998773530069999833e+04
-2.998712791171999925e+04
-2.998729359035000016e+04
-2.998763381592999940e+04
-2.998852442792000147e+04
-2.998788596515999961e+04
-2.998885899380000046e+04
-2.998870072647000052e+04
-2.998750436342999819e+04
-2.998856661919000180e+04
-2.998793766205000065e+04
-2.998892187892999937e+04
-2.998876441868999973e+04
-2.998666979698000068e+04
-2.998840698585000064e+04
-2.998832710637999844e+04
-2.998826861739000014e+04
-2.998772089512000093e+04
-2.998797340203999920e+04
-2.998796656939999957e+04
-2.998948200306999934e+04
-2.998804034370999943e+04
-2.998257686993999960e+04
-2.998200986511999872e+04
-2.998229472544999953e+04
-2.998452650892000020e+04
-2.998321249467999951e+04
-2.998405843956999888e+04
-2.998265694395999890e+04
-2.998168749784000101e+04
-2.998402825206000125e+04
-2.998301247254999907e+04
-2.998298324044000037e+04
-2.998321434274000057e+04
-2.998264140625000073e+04
-2.998248897767000017e+04
-2.998356287202000021e+04
-2.998435741295000116e+04
-2.998431341823999901e+04
-2.998280526512000142e+04
-2.998448301286000060e+04
-2.998434872733999873e+04
-2.998524709635000181e+04
-2.998394038960000034e+04
-2.998388427261999823e+04
-2.998342038021999906e+04
-2.998325646422000136e+04
-2.998353693330000169e+04
-2.998366148080999847e+04
-2.998288816627000051e+04
-2.998412874878000002e+04
-2.998433811694000178e+04
-2.998440203787000064e+04
-2.998473941238000043e+04
-2.998602520568000182e+04
-2.998437591546999829e+04
-2.998214718103999985e+04
-2.998268991192999965e+04
-2.998424397230999966e+04
-2.998278693959999873e+04
-2.998536496414000067e+04
-2.998362813473999995e+04
-2.998186757116000081e+04
-2.998424334984999950e+04
-2.998257786751000094e+04
-2.998415063572999861e+04
-2.998347383034000086e+04
-2.998358605353999883e+04
-2.998573152655000013e+04
-2.998314066449000165e+04
-2.998424019822999981e+04
-2.998464751255000010e+04
-2.998384300707999864e+04
-2.998566502489000050e+04
-2.998429892204999851e+04
-2.998470339401000092e+04
-2.998397792920999927e+04
-2.998554519405999963e+04
-2.998375909434999994e+04
-2.998393194017999849e+04
-2.998374523463000151e+04
-2.998240648510000028e+04
-2.998318479524999930e+04
-2.998368805450999935e+04
-2.998288466960000005e+04
-2.998465440710999974e+04
-2.998121979896999983e+04
-2.998433994582000014e+04
-2.998490709295000124e+04
-2.998423822635000033e+04
-2.998285991226999977e+04
-2.998452473746000032e+04
-2.998372313516999930e+04
-2.998438900170999841e+04
-2.998428106919999846e+04
-2.998378546967999864e+04
-2.998400025833999825e+04
-2.998437578485999984e+04
-2.998328340173000106e+04
-2.998330902861000141e+04
-2.998252933666000172e+04
-2.998191850762000104e+04
-2.998360497757000121e+04
-2.998285660554000060e+04
-2.998246863265999855e+04
-2.998343386946000101e+04
-2.998386679842000012e+04
-2.998395753495000099e+04
-2.998288633480999852e+04
-2.998380132779999985e+04
-2.998289831054000024e+04
-2.998285716256000160e+04
-2.998284336216000156e+04
-2.998258450395999898e+04
-2.998460698132000107e+04
-2.998377240656999857e+04
-2.998308927522000158e+04
-2.998283513873999982e+04
-2.998339285086000018e+04
-2.998307905965000100e+04
-2.998404904062000060e+04
-2.998387446713000099e+04
-2.998299259639999946e+04
-2.998227580196000054e+04
-2.998491334803000063e+04
-2.998293717018000098e+04
-2.998302518599000177e+04
-2.998239498556000035e+04
-2.998319757045000006e+04
-2.998428399251999872e+04
-2.998405912733999867e+04
-2.998298909143000128e+04
-2.998494145277999996e+04
-2.998539360862999820e+04
-2.998543532656000025e+04
-2.998364890220999951e+04
-2.998423065329000019e+04
-2.998643599639999957e+04
-2.998494754621999891e+04
-2.998552048570999978e+04
-2.998552345801000047e+04
-2.998683045565000066e+04
-2.998665870222000012e+04
-2.998611581894999836e+04
-2.998508777620999899e+04
-2.998510120965999886e+04
-2.998384518671999831e+04
-2.998472911735000162e+04
-2.998572159996999835e+04
-2.998493527076000100e+04
-2.998478689980000127e+04
-2.998599013099999866e+04
-2.998629865232000157e+04
-2.998595357833999878e+04
-2.998514369494999846e+04
-2.998531893960000161e+04
-2.998619967425999857e+04
-2.998749793513999975e+04
-2.998691812165000010e+04
-2.998527881762999823e+04
-2.998603311317000043e+04
-2.998532212647000051e+04
-2.998487875989999884e+04
-2.998373244378000163e+04
-2.998517625460999989e+04
-2.998646772978000081e+04
-2.998598164090999853e+04
-2.998543058414999905e+04
-2.998439488481000080e+04
-2.998523383705000015e+04
-2.998654881430000023e+04
-2.998715382894000140e+04
-2.998687952242000028e+04
-2.998690789683999901e+04
-2.998458212044000175e+04
-2.998565817115000027e+04
-2.998728107160999934e+04
-2.998511956320000172e+04
-2.998635508276000110e+04
-2.998534588814000017e+04
-2.998512001409000004e+04
-2.998613059540999893e+04
-2.998708729817000130e+04
-2.998496460328000103e+04
-2.998451190130000032e+04
-2.998137275082999986e+04
-2.998157477436000045e+04
-2.998175940176999939e+04
-2.998144484933000058e+04
-2.998266268244000094e+04
-2.998295153316999858e+04
-2.998247055365000051e+04
-2.998179493128999820e+04
-2.998251156217999960e+04
-2.998064864184000180e+04
-2.998080148497999835e+04
-2.998249299651999900e+04
-2.998013270533000104e+04
-2.998190209275999950e+04
-2.998143498179000017e+04
-2.998127124144000118e+04
-2.998472273574000064e+04
-2.998114539308000167e+04
-2.998224500465000165e+04
-2.997976332464000006e+04
-2.998267861715999970e+04
-2.998262845676000143e+04
-2.998204234763999921e+04
-2.998237062973000138e+04
-2.998074444390999997e+04
-2.998161601881000024e+04
-2.998029422170000180e+04
-2.998198868432000017e+04
-2.998090136550000170e+04
-2.997956559887999902e+04
-2.997939727679999851e+04
-2.997909994739999820e+04
-2.997984275646999959e+04
-2.997940578825999910e+04
-2.998015657680000004e+04
-2.998075877315999969e+04
-2.998100025457000083e+04
-2.998110654227999839e+04
-2.997969645712000056e+04
-2.998017301642999882e+04
-2.998138213958000051e+04
-2.997940093890999924e+04
-2.998076258900999892e+04
-2.997952776129999984e+04
-2.997923644099000012e+04
-2.997913337048000176e+04
-2.998065511011999843e+04
-2.998015518385000178e+04
-2.998112464602999898e+04
-2.997928039922999960e+04
-2.998038148170999921e+04
-2.997989933536000171e+04
-2.997920010751999871e+04
-2.998063914899999872e+04
-2.997968898664000153e+04
-2.997897315249999883e+04
-2.997928174959999888e+04
-2.997859349651999946e+04
-2.998010321008000028e+04
-2.998027505263000057e+04
-2.997861795616000018e+04
-2.998003298645000177e+04
-2.997983431100999951e+04
-2.997949947845000133e+04
-2.998230131360000087e+04
-2.997942784825999843e+04
-2.997901615520999985e+04
-2.997830680351000046e+04
-2.997850592057999893e+04
-2.997855643948999932e+04
-2.997889386379999996e+04
-2.997922697333000178e+04
-2.997972536786999990e+04
-2.997889395291999972e+04
-2.997854448634000073e+04
-2.997814596973000153e+04
-2.997869657613999880e+04
-2.997885745590000079e+04
-2.997960464343000058e+04
-2.997819583448000049e+04
-2.997974273173999973e+04
-2.997857381982000152e+04
-2.997839259953999863e+04
-2.997971041834000061e+04
-2.997964722749000066e+04
-2.997992685002999860e+04
-2.998098831407000034e+04
-2.997914600717999929e+04
-2.997880881294999926e+04
-2.997894694670000172e+04
-2.997953127442999903e+04