-72323.09014055
-72324.37613589
-72322.88997379
-72323.09715796
-72324.04557226
-72325.08170073
-72325.99344019
-72324.57357988
-72323.15728712
-72323.64624271
-72323.52806593
-72323.10488464
-72322.43534361
-72325.71536992
-72323.44145478
-72321.39770777
-72323.16604416
-72323.57212390
-72323.57233003
-72323.83850197
-72322.41876194
-72323.82566989
-72322.34472095
-72323.48617235
-72321.71410488
-72324.52714853
-72324.03395272
-72323.05716796
-72323.56480295
-72322.50991875
-72324.36132147
-72322.24541691
-72325.59929604
-72322.02418445
-72325.04503786
-72323.00344749
-72323.47649870
-72325.87300092
-72324.13971607
-72325.48696032
-72325.19474925
-72322.72249200
-72323.44575744
-72324.66376280
-72324.08725359
-72322.74585557
-72323.17729525
-72322.32740729
-72323.35223473
-72325.00940862
-72322.13997452
-72323.86037640
-72323.91329440
-72322.35602402
-72323.05134145
-72322.67072872
-72322.87263428
-72322.45760484
-72323.12777350
-72323.38638041
-72324.43110754
-72323.54614532
-72323.17386866
-72324.21602023
-72324.27814575
-72325.18976358
-72324.04927179
-72324.47522361
-72322.86965831
-72324.33910404
-72323.43255896
-72323.24045100
-72324.16314509
-72322.56299907
-72323.76085521
-72325.12046078
-72323.56292373
-72322.91270728
-72324.36003151
-72323.14054395
-72323.98167936
-72323.13610128
-72325.16682233
-72324.66590406
-72323.32111850
-72321.94410798
-72324.82783827
-72324.20857900
-72324.61436827
-72323.35287815
-72324.26546211
-72325.31833280
-72322.51172709
-72323.67110141
-72325.38037179
-72324.76380672
-72323.68162923
-72322.48308886
-72325.32104088
-72322.88644570
-72329.38050253
-72331.17348482
-72331.21087505
-72326.88577765
-72324.73199565
-72327.79941388
-72326.64889796
-72327.86176716
-72324.32695565
-72324.56996811
-72325.89489344
-72323.76903196
-72317.03257547
-72323.30334647
-72324.60104693
-72322.89188294
-72322.01617192
-72322.24105832
-72324.10405459
-72322.85783292
-72319.04971966
-72319.85713566
-72320.45466649
-72319.65646944
-72320.99200340
-72320.63983828
-72318.92180624
-72320.60770107
-72319.63395065
-72319.65385892
-72319.24198532
-72323.05698455
-72318.80033905
-72319.55425337
-72322.05211817
-72319.44928922
-72318.92718321
-72320.54567596
-72319.68993238
-72320.03854180
-72320.02061833
-72320.80343890
-72320.47245377
-72320.57037275
-72319.53298753
-72318.54411927
-72316.85393088
-72315.29576471
-72317.78740232
-72313.64413378
-72318.34459987
-72315.04149054
-72315.82638231
-72317.97972811
-72318.15780711
-72318.19794392
-72313.18757662
-72317.75285799
-72316.67353198
-72317.93040705
-72317.12388630
-72317.34786861
-72315.96464178
-72317.84359371
-72316.12537977
-72316.37177243
-72316.82508830
-72317.35937590
-72315.76361813
-72314.90361543
-72317.30756009
-72317.55830318
-72316.62504658
-72316.64402176
-72317.06443974
-72314.89239195
-72315.56472242
-72316.41734825
-72316.79710002
-72318.99116849
-72314.71893576
-72315.96522274
-72315.19119703
-72314.99429509
-72316.34161295
-72320.14120577
-72319.07722331
-72317.29462951
-72316.44976968
-72318.28317667
-72329.83513543
-72330.49735823
-72329.72346014
-72330.37379591
-72331.12791431
-72332.06720054
-72331.40371881
-72326.21933927
-72325.91944791
-72327.78176920
-72328.79080260
-72327.34312054
-72328.64929939
-72328.17820223
-72326.48355254
-72325.02154109
-72324.52405419
-72323.59510501
-72323.60756674
-72324.14607646
-72322.58503091
-72325.87293670
-72323.76114827
-72325.43372436
-72322.43548484
-72324.12341549
-72323.33648083
-72325.21816765
-72324.40731294
-72324.69110495
-72319.40365026
-72318.19075562
-72319.25855516
-72319.93631688
-72320.46569310
-72320.42727890
-72319.84692391
-72321.58508707
-72318.82187157
-72318.55474491
-72318.66328518
-72321.22359810
-72319.43222890
-72321.11548341
-72322.10589605
-72317.75718107
-72319.42914748
-72320.27041731
-72321.27245085
-72320.77493578
-72322.81838741
-72318.50562494
-72320.84300999
-72319.96284296
-72321.55266429
-72320.32871528
-72319.96782482
-72321.43696932
-72320.92306837
-72316.98932853
-72317.08303628
-72318.56035073
-72316.85155274
-72317.07093388
-72316.71203230
-72317.69002375
-72315.06671332
-72318.30248425
-72316.25164990
-72316.49499570
-72317.57470240
-72317.31641659
-72315.99513378
-72316.66487127
-72315.19714965
-72323.17388158
-72315.73528127
-72316.99345745
-72315.07120076
-72316.80318653
-72314.79710635
-72315.76136408
-72317.45095476
-72314.50186066
-72318.46171037
-72313.99539426
-72316.21260875
-72317.29700711
-72316.32903502
-72317.03958934
-72316.03461466
-72315.47446739
-72331.62568176
-72331.32111127
-72325.32946348
-72323.53238574
-72325.07950627
-72323.67292716
-72324.70558495
-72324.68983377
-72324.45437696
-72324.14762602
-72324.13537858
-72322.31245286
-72321.40197860
-72319.85116440
-72317.93919864
-72318.78039582
-72320.04520056
-72317.51048432
-72320.46843233
-72320.49910012
-72320.85111572
-72321.95640671
-72320.53995545
-72321.72356601
-72320.21409149
-72320.01485278
-72320.49493650
-72321.29392146
-72319.27786831
-72321.52368470
-72320.86930382
-72320.17008658
-72321.08078902
-72319.71517572
-72319.97829264
-72315.09614449
-72316.15292368
-72318.20914508
-72316.11967735
-72317.43223332
-72317.75216628
-72318.32097956
-72318.35278860
-72315.00437011
-72318.50148282
-72315.30110535
-72317.73965638
-72315.89949987
-72319.08305049
-72317.09849058
-72316.74190306
-72317.70267719
-72315.34932286
-72318.53773738
-72317.61177643
-72317.39815323
-72316.70619804
-72323.05102145
-72316.38310679
-72315.88470395
-72318.71061111
-72315.26653790
-72317.71102469
-72315.35287979
-72314.55060239
-72317.62751958
-72316.54063900
-72316.07014703
-72316.67400791
-72316.13022054
-72315.26151835
-72314.48414400
-72316.57616579
-72316.22483211
-72315.24979636
-72315.82136031
-72316.65046991
-72317.10879649
-72323.05102145
-72330.81089882
-72332.92158205
-72331.16727437
-72327.30305693
-72327.48030285
-72323.17879678
-72323.77937896
-72324.19123555
-72327.07727159
-72323.82159716
-72322.88600705
-72324.00681888
-72320.41875099
-72322.30415869
-72316.95937531
-72320.99244491
-72318.59980168
-72321.69586753
-72320.26452523
-72320.60613179
-72320.16650094
-72318.03494207
-72319.20369970
-72319.10043912
-72320.85814456
-72319.19653753
-72320.60377011
-72318.52387154
-72319.32926955
-72320.63378442
-72318.96267803
-72316.68610160
-72317.18622693
-72316.98900431
-72316.32690219
-72317.49102599
-72317.60626571
-72316.34834328
-72315.55526414
-72316.48069420
-72317.91649821
-72315.04180551
-72318.10211626
-72316.56866402
-72316.33146772
-72316.55273461
-72316.55953501
-72314.82694432
-72315.47250096
-72315.99208175
-72316.84604556
-72316.37090547
-72315.24548349
-72317.85684743
-72315.45011877
-72315.33838932
-72318.87763466
-72317.54165538
-72318.20092832
-72316.61092958
-72317.95589147
-72316.97464744
-72317.87899411
-72331.44979056
-72332.76917429
-72326.15716857
-72327.04413873
-72327.15252729
-72328.02168759
-72327.40839360
-72325.77284094
-72323.05298761
-72323.52821491
-72321.97222619
-72322.47047774
-72323.88631117
-72325.41909741
-72324.09970416
-72323.83186416
-72319.61158411
-72321.87308338
-72321.22719204
-72320.42687903
-72320.20324394
-72321.10345584
-72319.25955436
-72318.49458555
-72319.93385139
-72319.50435597
-72317.95015136
-72315.69501875
-72316.87033745
-72315.10146473
-72315.52968924
-72315.80147844
-72317.66989099
-72317.22091098
-72317.10677645
-72315.31418396
-72317.73802533
-72317.15344373
-72316.94338154
-72315.21558361
-72317.74210663
-72315.41054278
-72316.59818784
-72318.19120923
-72320.20840023
-72314.33362049
-72318.61352887
-72316.15980640
-72315.58967472
-72316.81882424
-72316.28081031
-72316.43601268
-72319.48034259
-72316.34203472
-72317.81107664
-72331.53619750
-72331.90256112
-72333.08406647
-72332.26264218
-72332.81471528
-72327.43423722
-72327.05995889
-72327.89067914
-72321.39774518
-72324.77119951
-72328.38885218
-72326.50321277
-72327.23882334
-72322.94335112
-72322.67715605
-72325.25534753
-72325.59983864
-72320.11341627
-72320.22041855
-72319.38507250
-72320.97143581
-72320.28661667
-72318.89450327
-72321.90389729
-72320.05359460
-72319.92284234
-72319.13930284
-72320.12496506
-72318.79545053
-72320.06495644
-72322.30997391
-72319.49103599
-72318.46176656
-72319.06285202
-72314.33659252
-72317.51457623
-72317.25823100
-72315.09221816
-72316.65575845
-72317.43116106
-72317.74957426
-72317.05679728
-72315.71566907
-72317.00141787
-72315.81045670
-72316.87968429
-72315.28063612
-72317.17298042
-72317.38460154
-72319.24271567
-72316.00627236
-72314.57253246
-72318.86832455
-72318.16924392
-72317.73985027
-72317.83128613
-72316.83594442
-72318.39233124
-72317.07303745
-72316.19017323
-72316.82728399
-72318.39236036
-72317.19955534
-72316.26688828
-72317.19782374
-72318.25919962
-72316.20004906
-72316.69247070
-72315.71868409
-72317.26772533
-72315.02674917
-72315.65520398
-72317.30190774
-72322.13957492
-72330.99374090
-72332.27450308
-72330.73560747
-72331.95775141
-72323.44543390
-72326.42817258
-72326.35047711
-72323.44543390
-72327.54375057
-72326.29117817
-72327.79955320
-72323.50853781
-72324.14792793
-72324.71851485
-72324.08143457
-72323.62377657
-72324.26462917
-72324.85580260
-72323.41978049
-72323.32969853
-72318.68021312
-72318.96057309
-72318.34084633
-72317.76918714
-72318.97693571
-72319.95259270
-72320.99117536
-72322.15694844
-72318.81172906
-72319.42077997
-72319.07029665
-72318.31702670
-72319.70643501
-72320.95891775
-72320.34098803
-72320.47608717
-72320.12589569
-72318.70851692
-72316.61428746
-72316.76568745
-72316.88774948
-72316.68923064
-72317.04168884
-72315.97425311
-72316.71215475
-72318.84123343
-72317.03775516
-72318.41715607
-72318.08157125
-72317.18784750
-72317.86928780
-72314.99178008
-72317.35507106
-72315.02695394
-72315.21472509
-72315.39895699
-72315.57798675
-72318.08925357
-72316.19574245
-72317.81406554
-72315.77729281
-72317.09114555
-72317.40582806
-72316.51429824
-72314.75420813
-72315.69600108
-72316.06111896
-72319.28473837
-72318.30899213
-72314.81655841
-72317.15536512
-72316.54431377
-72315.87964725
-72316.57678676
-72315.11828817
-72314.77830368
-72313.79174050
-72317.37900334
-72323.32077890
-72327.41371071
-72327.39190880
-72326.58852172
-72326.01040119
-72326.10267136
-72324.19556665
-72323.78634099
-72322.47617676
-72324.46531703
-72322.89142729
-72323.66498170
-72323.42908325
-72319.22173093
-72319.41803190
-72320.64099775
-72319.48075580
-72319.63505298
-72320.54867724
-72318.12480921
-72320.22591661
-72317.23831553
-72320.27832549
-72320.50497275
-72317.30254694
-72317.11176131
-72316.22559199
-72316.65171783
-72317.87285426
-72318.26800238
-72316.50807839
-72318.26730263
-72317.16623118
-72316.74553211
-72315.73733274
-72316.05358712
-72317.36351203
-72314.72083634
-72316.69776060
-72317.61870622
-72317.07050897
-72318.21588520
-72316.67786050
-72315.39753873
-72315.81990545
-72318.08491390
-72315.26965973
-72319.29541149
-72317.04491135
-72318.08982406
-72316.08618991
-72315.56053472
-72316.62247333
-72317.53852281
-72317.62004502
-72315.27362864
-72317.46658975
-72317.24055639
-72319.06145784
-72316.44458903
