   -66.48445159      1.62286673     -2.95756087      1.62286673    -62.79887574     15.27314766     -2.95756087     15.27314766    -39.00188599 
  -119.65229578     20.74842700      7.18914795     20.74842700   -105.40291920     17.45719260      7.18914795     17.45719260    -52.63699994 
   -46.32753676    -16.63817575     -0.20475421    -16.63817575    -48.90592315     18.07145524     -0.20475421     18.07145524    -42.06561571 
  -108.27706168    -16.18316638     -2.57080291    -16.18316638   -116.92223960     15.78124145     -2.57080291     15.78124145    -72.43749077 
   -44.46958185    -31.60040034     -3.60974096    -31.60040034    -55.34430566     31.35014519     -3.60974096     31.35014519    -60.27357377 
  -117.08149288      4.33775594      4.63351202      4.33775594   -113.40350052     15.91016077      4.63351202     15.91016077    -50.96104878 
   -57.77860575     13.52894509    -10.40454746     13.52894509    -56.38324370      1.44086299    -10.40454746      1.44086299    -39.77540191 
  -120.61539894      5.27052513      2.09304307      5.27052513   -120.00871979    -19.01939142      2.09304307    -19.01939142    -57.15675962 
   -65.95360733     -8.81201469      3.95858147     -8.81201469    -83.22121270    -15.59165421      3.95858147    -15.59165421    -41.68644124 
   -95.42304714    -13.90053607     20.05074598    -13.90053607   -103.98480668    -22.59121493     20.05074598    -22.59121493    -61.58551743 
   -93.70159505    -14.54513267      6.62038625    -14.54513267    -77.61701403    -24.78284337      6.62038625    -24.78284337    -35.26322572 
   -77.48051122     18.08662222      5.84687033     18.08662222    -74.16652635    -23.03105731      5.84687033    -23.03105731    -51.56772793 
   -73.13517179      9.93437112     -4.10266777      9.93437112   -115.73921525    -10.85197333     -4.10266777    -10.85197333    -48.11724026 
   -50.81696248      2.76797363     -4.41359083      2.76797363    -70.93595987     -5.83170335     -4.41359083     -5.83170335    -54.57837323 
  -111.95505404     -8.26600345      4.79276530     -8.26600345    -74.11344192      0.34125702      4.79276530      0.34125702    -47.46506017 
   -90.17527248     -3.54148955     -6.11229246     -3.54148955    -66.17352852      8.18258506     -6.11229246      8.18258506    -56.20123996 
   -68.68366351     -7.89441247     -9.27460754     -7.89441247    -92.30623300     16.53959039     -9.27460754     16.53959039    -74.19686031 
   -81.40117524     15.62198817    -12.93743292     15.62198817   -120.24380796     36.68892173    -12.93743292     36.68892173    -44.32549555 
   -80.74141166      1.34986111     -0.89485175      1.34986111    -91.76022176     26.23887333     -0.89485175     26.23887333    -54.85137884 
  -112.20530919    -25.76111350     -7.05264514    -25.76111350    -66.97737840     23.15239314     -7.05264514     23.15239314    -45.66777318 
  -115.71646478     -9.26702405      3.86757959     -9.26702405   -103.95447272     15.91774425      3.86757959     15.91774425    -56.25432438 
   -49.25476367      2.08545959      4.23158709      2.08545959    -70.82220752     -5.53594726      4.23158709     -5.53594726    -42.40687274 
  -104.51565094     17.35102375      2.67697176     17.35102375   -108.15572585      2.23712937      2.67697176      2.23712937    -55.98890225 
   -16.01632962     14.05978935      8.66792839     14.05978935    -49.75527397     -8.16741809      8.66792839     -8.16741809    -32.78342468 
  -107.75380091     -1.63045022     19.92182666     -1.63045022   -116.30797696    -11.92882883     19.92182666    -11.92882883    -60.49349496 
   -73.77976839    -11.60273878      6.27154574    -11.60273878    -71.95973093    -34.19395371      6.27154574    -34.19395371    -27.69490330 
   -92.67024049    -18.67055091      7.21948191    -18.67055091    -78.23886016    -25.74594652      7.21948191    -25.74594652    -46.50954050 
   -69.61643271     10.19979325     -1.75936954     10.19979325    -88.69649204    -26.14028797     -1.75936954    -26.14028797    -43.74915036 
   -88.30215060     11.59515530    -10.43488142     11.59515530   -108.36806355    -15.53856978    -10.43488142    -15.53856978    -56.40599417 
   -69.33584360      9.66136550     -3.92824751      9.66136550    -62.32869939     -9.52486269     -3.92824751     -9.52486269    -43.60506406 
  -121.30549647     -2.34329823     -5.13402233     -2.34329823   -100.14756104      6.71138812     -5.13402233      6.71138812    -46.88113148 
   -70.11694301    -10.85197333    -17.91220197    -10.85197333    -70.29136327      4.09508428    -17.91220197      4.09508428    -54.44945391 
   -77.22267258     -3.15473159     -6.21846131     -3.15473159   -114.81402954     19.74740640     -6.21846131     19.74740640    -44.49233232 
   -71.16346455      2.16129448      0.53842775      2.16129448    -88.40073596     25.76869699      0.53842775     25.76869699    -38.82746574 
  -104.77348958      3.76899423      4.67142947      3.76899423    -99.16170742     14.96980808      4.67142947     14.96980808    -47.22997200 
   -78.42086391     -0.28817260     12.14875002     -0.28817260    -81.71968179     -1.07685550     12.14875002     -1.07685550    -51.02171670 
  -105.25124941     -1.82003746      8.97126796     -1.82003746   -112.31147804     -2.87414248      8.97126796     -2.87414248    -43.52164568 
   -65.87777243     -8.43284021     12.87676500     -8.43284021    -81.60592945     -1.91103933     12.87676500     -1.91103933    -28.96134603 
  -104.41706557     -0.15925328     12.37625470     -0.15925328   -105.06924566      4.23158709     12.37625470      4.23158709    -54.35086854 
   -75.30404976      4.61076156     20.97593169      4.61076156    -66.02944222     -3.85999611     20.97593169     -3.85999611    -48.40541285 
  -100.04139219      7.51523800      2.37363218      7.51523800    -73.86318677    -10.72305401      2.37363218    -10.72305401    -49.92969422 
   -76.60840994    -25.41227299     -8.99401843    -25.41227299   -104.03030762    -23.27372897     -8.99401843    -23.27372897    -63.35247046 
   -73.67359954    -12.82368058    -15.72815702    -12.82368058    -82.22019210     -1.50153090    -15.72815702     -1.50153090    -46.74462867 
   -89.39417307     13.93845352    -14.78780433     13.93845352    -80.64282630    -12.33075377    -14.78780433    -12.33075377    -32.63175490 
  -102.54394369      6.51421740     -8.21291902      6.51421740    -82.67520146     -6.80997348     -8.21291902     -6.80997348    -41.78502660 
   -81.92443601      1.08443898    -17.11593558      1.08443898    -83.45630087     -5.49044633    -17.11593558     -5.49044633    -59.06779895 
   -99.55604887     -8.37217230    -19.67157151     -8.37217230   -124.66498228      2.75280665    -19.67157151      2.75280665    -44.44683138 
   -71.55780600    -15.50065234     -7.11331306    -15.50065234    -60.11432049      9.33527545     -7.11331306      9.33527545    -49.61877116 
  -131.56595763      5.42977841      0.92518571      5.42977841   -106.29777095      5.58903169      0.92518571      5.58903169    -47.98073745 
   -69.11592241     16.22866732      5.02026998     16.22866732    -73.08208737      7.53798847      5.02026998      7.53798847    -43.11213725 
   -87.39213187     12.86159803      6.19571084     12.86159803   -110.98436740     11.79990951      6.19571084     11.79990951    -25.92795027 
   -83.39563295      1.44844648      4.79276530      1.44844648    -80.19540043     17.67711380      4.79276530     17.67711380    -55.73864710 
  -104.30331323    -20.17208181     16.12249847    -20.17208181    -79.76314153      9.26702405     16.12249847      9.26702405    -32.51800256 
   -93.41342245    -18.70088487     21.33993918    -18.70088487    -61.21392645     -0.04550094     21.33993918     -0.04550094    -42.03528175 
   -84.57865730     10.02537299      6.27154574     10.02537299   -100.10206011     -0.44742587      6.27154574     -0.44742587    -51.17338648 
   -72.02798234     34.72479797      7.47732055     34.72479797    -63.34488697      0.07583489      7.47732055      0.07583489    -43.57473010 
  -101.01966232      5.57386471     -3.32915185      5.57386471    -86.94470599     -4.79276530     -3.32915185     -4.79276530    -65.46068052 
   -94.96045429    -25.60944371     -0.87210128    -25.60944371    -91.85880713    -15.51581932     -0.87210128    -15.51581932    -50.83212946 
  -106.03993231    -26.76213410      4.14816870    -26.76213410    -99.02520461     -8.91818354      4.14816870     -8.91818354    -58.68862448 
   -70.66295425      2.56321942    -11.60273878      2.56321942    -93.92151624    -22.32579280    -11.60273878    -22.32579280    -51.78764913 
   -80.22573438     23.57706855    -14.46171429     23.57706855   -100.29164734      5.76345195    -14.46171429      5.76345195    -46.63845982 
   -88.17323128     18.06387176     -3.95099798     18.06387176    -95.79463812     -5.61178216     -3.95099798     -5.61178216    -42.93771699 
  -114.79886257     -1.28919320     -9.41869384     -1.28919320   -100.66323832      5.99095663     -9.41869384      5.99095663    -48.75425336 
   -83.52455227    -26.58771384     -8.17500158    -26.58771384    -58.67345750      4.01166589     -8.17500158      4.01166589    -43.57473010 
  -106.83619869     -9.16085520    -11.39798457     -9.16085520    -89.19700235      0.94035269    -11.39798457      0.94035269    -46.21378442 
   -71.27721689      6.93130931     -1.41052903      6.93130931    -78.45878135     10.13912533     -1.41052903     10.13912533    -41.78502660 
   -78.37536297     17.91978546      4.69417994     17.91978546   -108.80790594      4.51217619      4.69417994      4.51217619    -52.44741270 
   -76.46432364     -3.07131321      1.05410503     -3.07131321    -68.70641398     -2.55563593      1.05410503     -2.55563593    -42.27036993 
   -82.48561422    -11.04156057      4.94443509    -11.04156057    -76.16856755      7.40906915      4.94443509      7.40906915    -46.89629846 
   -72.73324685    -17.54061099     10.18462627    -17.54061099    -74.20444380      0.30333958     10.18462627      0.30333958    -26.60288082 
   -88.59790668      8.28875392     11.42073504      8.28875392   -107.48837878      1.42569601     11.42073504      1.42569601    -62.96571250 
   -89.59134379      7.46973706     10.64721912      7.46973706    -78.48911531     -3.86757959     10.64721912     -3.86757959    -37.65202488 
   -98.91145227     13.80953420      3.81449517     13.80953420    -90.91845444    -11.86057742      3.81449517    -11.86057742    -64.07290196 
   -95.74155370      8.65276141      7.56073893      8.65276141    -83.18329525     -8.96368447      7.56073893     -8.96368447    -46.35028722 
   -85.25358786     -0.11375234     -6.59005229     -0.11375234   -101.64909194    -13.44552671     -6.59005229    -13.44552671    -50.06619703 
   -90.56203044    -16.44858851     -5.75586846    -16.44858851    -99.74563610     -7.79582711     -5.75586846     -7.79582711    -60.06123606 
   -64.31557362    -15.91016077     -5.52078028    -15.91016077    -67.34896938     -4.79276530     -5.52078028     -4.79276530    -36.13532700 
  -124.65739879      8.15983460      2.29779729      8.15983460   -118.45410446     -8.13708413      2.29779729     -8.13708413    -58.89337870 
   -73.84043631     17.32068979     -3.11681414     17.32068979    -51.62081236      1.14510690     -3.11681414      1.14510690    -35.45281295 
  -104.04547459     16.09216451     -4.01166589     16.09216451    -98.21377124     11.33731666     -4.01166589     11.33731666    -56.59558141 
   -42.78604721     -4.04958334     -3.64765840     -4.04958334    -78.96687514     15.25039719     -3.64765840     15.25039719    -33.84511320 
   -96.02214281    -13.10426969     -6.78722301    -13.10426969   -116.12597321     19.33789797     -6.78722301     19.33789797    -51.88623449 
   -61.97985888    -17.85911754      0.03791745    -17.85911754    -77.29092398      9.40352686      0.03791745      9.40352686    -39.63131561 
   -95.49888204      8.95610098     -1.01618758      8.95610098    -50.96104878      4.67142947     -1.01618758      4.67142947    -44.02215598 
  -106.41910678     19.26206308      1.67595116     19.26206308    -76.30507036     -5.30844258      1.67595116     -5.30844258    -65.30901073 
   -97.71326094     -2.18404495      8.54659256     -2.18404495    -82.61453354     -1.46361345      8.54659256     -1.46361345    -62.10119471 
   -72.17965213      0.06066792     -0.99343711      0.06066792   -100.91349347    -11.28423223     -0.99343711    -11.28423223    -54.98029816 
   -69.73018505    -13.36210833      7.66690779    -13.36210833   -120.53956404    -19.21656214      7.66690779    -19.21656214    -53.71385543 
   -96.66673941     -9.21393962      0.22750468     -9.21393962   -102.38469042    -21.63569526      0.22750468    -21.63569526    -42.18695154 
  -118.02184556     -0.12133583      4.33017245     -0.12133583    -95.24862689    -12.21700143      4.33017245    -12.21700143    -45.28101522 
   -77.06341930     18.64780044     -2.98031133     18.64780044    -74.50019988     -6.80238999     -2.98031133     -6.80238999    -42.88463257 
   -82.95579057      7.72757570      0.18200375      7.72757570    -89.65201171     -2.37363218      0.18200375     -2.37363218    -43.39272636 
   -83.32738155     -9.61586456     -1.85037141     -9.61586456   -104.78107307      3.84482913     -1.85037141      3.84482913    -28.71867437 
  -103.37812753    -12.00466372     -0.25025515    -12.00466372    -83.09987687     15.60682119     -0.25025515     15.60682119    -60.34940866 
  -106.03993231     -0.07583489      3.04097925     -0.07583489    -84.04022955     15.98599566      3.04097925     15.98599566    -54.01719501 
   -77.98860501     10.39696397    -11.74682508     10.39696397    -65.09667303     16.39550409    -11.74682508     16.39550409    -31.59281685 
   -83.47905134     -2.41154963     -8.02333179     -2.41154963   -115.66338036     19.13314376     -8.02333179     19.13314376    -62.35144986 
   -64.24732221      4.62592854     10.85955682      4.62592854   -103.84072038      9.18360567     10.85955682      9.18360567    -35.21772478 
   -77.19992211    -18.30654342     -4.61834505    -18.30654342    -73.16550575      3.45807117     -4.61834505      3.45807117    -56.66383281 
  -127.08411540     -1.56219882     -4.14058521     -1.56219882    -89.12875094     -5.96820616     -4.14058521     -5.96820616    -45.24309777 
   -32.44963386      2.09888279     -5.41330560      2.09888279    -21.66832228     18.64079711     -5.41330560     18.64079711     87.57928169 
   -30.75316529     -0.55901111     -4.65338979     -0.55901111    -35.25547099     -0.84607087     -4.65338979     -0.84607087     54.08054785 
   -32.96695272      5.24319266     -5.00073289      5.24319266    -17.82079356     -7.41775378     -5.00073289     -7.41775378      6.65249011 
    -5.06099161      7.95515149     11.56148683      7.95515149    -28.59308735     10.17501757     11.56148683     10.17501757      6.80354861 
   -15.00432961     -4.56620695     -8.14369801     -4.56620695    -18.92145590      4.36242581     -8.14369801      4.36242581     71.74605494 
    -4.20969954     -0.35585590      3.56613036     -0.35585590     -3.48284494     20.66235618      3.56613036     20.66235618     17.38393910 
   -39.81155049      3.99699219     -5.06788443      3.99699219    -19.94725346     13.95176518     -5.06788443     13.95176518     77.83576673 
   -29.27242844      5.83028735      9.98181492      5.83028735      0.02268594    -17.22619271      9.98181492    -17.22619271     49.08481865 
   -53.30974369      9.99462905      6.49120065      9.99462905     -8.33391299      2.37353482      6.49120065      2.37353482     -6.65803058 
   -19.13583463      3.43580384     -7.37218837      3.43580384    -14.00109026      6.20416676     -7.37218837      6.20416676     -8.02446018 
   -23.73117537    -11.26662192     18.53761143    -11.26662192    -20.02365309      6.26260411     18.53761143      6.26260411     12.13853411 
   -48.58800669     -1.37155789     13.53371490     -1.37155789    -58.47686333     -6.70623611     13.53371490     -6.70623611      8.46425506 
   -24.02579493     13.13379930    -10.56742473     13.13379930    -58.62656276      4.66476320    -10.56742473      4.66476320     71.67733230 
   -32.20743264     -5.50159857      6.65943156     -5.50159857    -21.22693810      6.38700027      6.65943156      6.38700027     30.29284606 
     1.21045023      9.15402984     -7.31565856      9.15402984    -20.63061105     -4.35005550     -7.31565856     -4.35005550     44.34030487 
   -53.54803503      3.02201782     -5.40782136      3.02201782    -15.92807888     -2.76450252     -5.40782136     -2.76450252      0.67408418 
   -43.07652960      9.90880928      2.14326111      9.90880928     -8.74661840    -10.83705265      2.14326111    -10.83705265     79.85911637 
     7.58890482     10.73958785    -16.25328317     10.73958785    -18.09370619     -4.91536849    -16.25328317     -4.91536849     18.01039486 
   -43.17337916     -6.35992501    -13.41558498     -6.35992501    -32.15505486     12.87865908    -13.41558498     12.87865908     36.23871658 
    -9.49007774     -7.42833562    -20.55678182     -7.42833562      7.31463660      8.38340734    -20.55678182      8.38340734     20.43550288 
   -19.69875852      0.25730226     -9.92127254      0.25730226    -42.68947247    -32.57900709     -9.92127254    -32.57900709     27.16052414 
   -23.70255714     -5.11527931      5.89352712     -5.11527931    -34.71136356     10.81991132      5.89352712     10.81991132     57.48455681 
   -11.23695312    -14.53524908     -3.11632101    -14.53524908    -28.43358584    -17.25729103     -3.11632101    -17.25729103      9.27314013 
   -39.88942338     -4.21761747     -1.26452804     -4.21761747    -27.86504898     16.18898770     -1.26452804     16.18898770     25.54800958 
   -28.72597356    -10.81572991     -2.54131836    -10.81572991    -43.24022929      2.89680039     -2.54131836      2.89680039     31.25216502 
   -44.71152275     -4.33374098     -5.82865511     -4.33374098    -38.20336121      7.82942403     -5.82865511      7.82942403     78.33199063 
   -65.80677653      1.21668478     17.87241921      1.21668478    -56.37558026     -2.80366492     17.87241921     -2.80366492     50.17880066 
   -50.27660807      0.92487126      8.65740145      0.92487126    -60.61697197     -0.61405387      8.65740145     -0.61405387    -10.28729752 
   -36.60157137     -6.58661535    -14.49206967     -6.58661535    -40.47471342    -17.09942949    -14.49206967    -17.09942949      4.85848152 
   -61.07353483      6.45425056    -16.01470366      6.45425056    -18.67500366    -23.68573916    -16.01470366    -23.68573916     57.91442858 
   -11.96272851      1.69490904      4.32807129      1.69490904    -55.50827095     12.28809052      4.32807129     12.28809052     26.48295370 
   -69.60884922     10.19979325     -1.75936954     10.19979325    -88.69649204    -26.14028797     -1.75936954    -26.14028797    -43.74915036 
    -1.46995550     -3.34149678     -6.62237684     -3.34149678    -55.12333125    -14.87382808     -6.62237684    -14.87382808     11.67629601 
     0.24219528      8.21950219      3.98865346      8.21950219    -19.74648363     -2.64901084      3.98865346     -2.64901084     14.84959788 
   -45.64128340     13.47497368     -9.87409836     13.47497368    -25.09289216     10.77242994     -9.87409836     10.77242994     67.70702461 
   -77.97706470      0.96081180     -4.33500127      0.96081180    -52.36046034      3.16235695     -4.33500127      3.16235695     22.60555635 
   -17.60633290      1.03923637     13.29767410      1.03923637     16.08919952     -0.84200903     13.29767410     -0.84200903    -15.95265752 
   -33.46864839      0.67315474     16.17840427      0.67315474    -73.90331377     -9.06868010     16.17840427     -9.06868010     51.97662187 
    33.08506107      3.25327607    -13.38382644      3.25327607     20.37458712     13.82264043    -13.38382644     13.82264043     46.41592721 
   -31.68493043     11.37718515      8.00644787     11.37718515    -18.20198131     -8.97600826      8.00644787     -8.97600826      8.48365338 
   -46.35736354      0.10594239     -0.66592360      0.10594239    -51.97231028      5.10793673     -0.66592360      5.10793673     19.66744823 
   -26.61176113     19.42287376     -9.56750763     19.42287376    -23.45289281    -22.85445014     -9.56750763    -22.85445014      0.92417730 
     0.76520532    -14.88741047     -1.97741177    -14.88741047    -35.59341190    -11.66748708     -1.97741177    -11.66748708     14.45556192 
   -61.69782353     -0.65216480      9.44880631     -0.65216480    -48.21469543     -2.32807667      9.44880631     -2.32807667     -6.12731581 
   -55.31806514    -12.83209531     -5.11769701    -12.83209531    -44.26505089      0.45423346     -5.11769701      0.45423346     21.69721838 
   -49.00969789     -8.97200978      6.63641498     -8.97200978    -47.97417528     -0.43839643      6.63641498     -0.43839643     58.18578876 
    -6.83776132     -7.13242727     -2.48577179     -7.13242727    -40.97367914      7.05687190     -2.48577179      7.05687190     70.10783122 
   -50.27003450      7.28518333     -1.48275798      7.28518333    -50.14899303     -1.15745903     -1.48275798     -1.15745903     34.48168807 
   -68.83544219     10.57724571     -6.62972063     10.57724571    -69.16882242      2.83373202     -6.62972063      2.83373202      9.09218829 
   -11.55222623     -6.75080850    -19.86558141     -6.75080850    -29.39256509     -5.59786143    -19.86558141     -5.59786143      1.75976132 
   -52.77500991      1.82321924     -7.71652955      1.82321924    -37.37977695      7.51983369     -7.71652955      7.51983369     44.05987066 
   -27.88732440      6.58838983      7.85771265      6.58838983    -32.79083932    -17.19630191      7.85771265    -17.19630191     52.35201051 
   -30.27172899     11.37455685     -3.99544527     11.37455685    -41.68404997      4.90178446     -3.99544527      4.90178446     63.81383189 
   -24.23245589     16.43967297     10.90687269     16.43967297    -49.02423858     -2.12393016     10.90687269     -2.12393016     41.96462729 
   -38.58322274    -10.40003568      3.06998138    -10.40003568     -8.27757942      8.23967841      3.06998138      8.23967841     11.46884401 
   -38.50814419      0.31097773     -5.62035352      0.31097773    -35.08738921    -12.11296164     -5.62035352    -12.11296164     -2.82155400 
   -45.88700518      3.27872496     11.22187156      3.27872496    -28.56201048    -11.20672734     11.22187156    -11.20672734     13.78124578 
   -14.85894339    -22.40562304     12.21987406    -22.40562304    -32.83334972     -3.93213769     12.21987406     -3.93213769     41.63528871 
   -43.04262467      3.42763678      1.37257136      3.42763678    -51.94538037    -22.61330281      1.37257136    -22.61330281    -19.54966286 
   -20.53043047     18.08254230      1.49298442     18.08254230    -19.38606170    -12.97456514      1.49298442    -12.97456514     10.17806132 
   -48.09225520     26.91804119     10.55683651     26.91804119    -27.16020518      1.90704143     10.55683651      1.90704143     31.76888864 
   -35.06363668     -7.75576772     -5.10745679     -7.75576772    -79.87305756     12.37896193     -5.10745679     12.37896193     23.78939873 
   -55.37792189     -2.70524331     18.96701402     -2.70524331    -36.56246211    -28.59828643     18.96701402    -28.59828643     10.88159494 
   -11.31416837    -14.67353606     24.91847003    -14.67353606    -37.99952931    -18.16181854     24.91847003    -18.16181854     -6.13482722 
   -43.78541385    -16.65963156      8.13697846    -16.65963156    -27.85175806      1.36876682      8.13697846      1.36876682     51.78627185 
   -54.06726802      0.36256341     -8.12746303      0.36256341    -49.70895373     15.01616776     -8.12746303     15.01616776     79.07658967 
   -41.97416219     -3.98200852      8.92728386     -3.98200852    -33.80535614     -5.85544872      8.92728386     -5.85544872    -14.33523067 
   -30.99431908      2.93878830     16.87899912      2.93878830    -13.83362264     -2.45914150     16.87899912     -2.45914150    -82.25561861 
   -12.93592689      6.92942049      7.76912101      6.92942049    -43.78546483      4.28171615      7.76912101      4.28171615     28.04297134 
     9.20065943      0.21168321    -16.75321388      0.21168321    -29.19716246     -9.35942183    -16.75321388     -9.35942183     59.60394325 
    -2.17199758      4.49535387    -16.15754294      4.49535387    -37.01477401      0.84004087    -16.15754294      0.84004087     18.33710845 
   -55.72472689      4.04941074     28.27788134      4.04941074    -74.79322074     14.07472427     28.27788134     14.07472427     59.35861973 
   -26.22599880    -20.37698060    -33.85317906    -20.37698060    -21.37577802    -10.86570521    -33.85317906    -10.86570521     21.02014560 
   -50.32476824     -2.78866356     28.14428388     -2.78866356    -29.47799254     29.23550006     28.14428388     29.23550006      6.20629200 
   -41.77882960    -18.66600837     24.71882520    -18.66600837     -5.78009918     34.40787743     24.71882520     34.40787743     36.69567554 
   -31.65698656    -14.55842256    -19.50980273    -14.55842256    -19.15342468    -24.94646366    -19.50980273    -24.94646366      0.92506643 
   -51.14764375      6.71742581      8.13798380      6.71742581    -70.55186138     16.57065781      8.13798380     16.57065781     25.67583003 
    -5.54091250      8.87453108     -1.91248412      8.87453108    -47.31319421     -8.89720875     -1.91248412     -8.89720875     69.16691597 
   -11.60798649      3.61709097      9.17893586      3.61709097    -47.49134498     15.99692532      9.17893586     15.99692532     39.10695839 
   -21.75697893      0.00757291      3.81674813      0.00757291    -15.81224226     -3.27149840      3.81674813     -3.27149840     17.23594989 
   -52.01713022      6.27285375     -0.05283992      6.27285375    -64.04198705      7.36739502     -0.05283992      7.36739502     64.59303197 
   -32.85686370     -4.10427352     21.15628284     -4.10427352    -54.81434910      8.60914832     21.15628284      8.60914832     60.33206489 
   -36.24263911     -3.16236272     14.71743987     -3.16236272    -39.57859215     12.75511456     14.71743987     12.75511456     83.35354152 
   -38.74839980     12.83796065    -17.42997133     12.83796065     -5.94616209    -19.45741591    -17.42997133    -19.45741591     36.19896389 
   -16.74290747     -5.50555065     30.58974445     -5.50555065    -18.27390306     13.15298677     30.58974445     13.15298677     83.36761223 
   -18.10806353      0.82446906    -35.96651717      0.82446906    -35.20255960     -8.24469058    -35.96651717     -8.24469058     42.10086952 
   -35.75900506      5.82812513     21.24568172      5.82812513    -65.11239150     11.13194697     21.24568172     11.13194697    -55.36338948 
   -46.07981572     -5.13175346    -39.55537401     -5.13175346    -25.38628481     -3.11084170    -39.55537401     -3.11084170     27.65697218 
   -61.38418419      5.76565838     40.91268756      5.76565838    -50.73930900     -2.02290511     40.91268756     -2.02290511     -0.21971629 
   -51.25327333      0.18954613    -24.64099679      0.18954613    -57.22776732      6.23985857    -24.64099679      6.23985857    -14.92865313 
   -27.38847399      1.77994784      7.04404890      1.77994784    -25.97966421    -10.02072762      7.04404890    -10.02072762     -6.36236675 
   -25.68479134    -13.74700297      0.52232555    -13.74700297    -31.80129927     12.46768386      0.52232555     12.46768386      6.30575632 
   -70.27141962     -2.46074899    -13.65904978     -2.46074899    -36.96423560    -10.02471281    -13.65904978    -10.02471281     15.15821378 
   -43.89193285     -7.72292074    -10.81966052     -7.72292074    -41.68105750     -8.83592990    -10.81966052     -8.83592990     25.16763581 
   -45.06486307     -2.35905949      6.11383263     -2.35905949    -39.62613107    -10.54370639      6.11383263    -10.54370639    -17.36298124 
   -35.26022626     -5.65587052     -5.80729945     -5.65587052    -31.33064554     -9.05544999     -5.80729945     -9.05544999     19.20118828 
   -37.18797771      2.30388124     -1.88706062      2.30388124    -37.30923462      4.38798433     -1.88706062      4.38798433     -3.69833567 
   -35.11008466     -6.24044645      1.88576598     -6.24044645    -48.76484796     -8.51245366      1.88576598     -8.51245366     -2.26443385 
   -62.11642123    -11.33871181     -0.91771514    -11.33871181    -61.23662821      0.44748093     -0.91771514      0.44748093    -22.85186534 
   -46.37505571     22.28579066     -2.58396961     22.28579066    -14.93549588     15.97363030     -2.58396961     15.97363030     -2.24297655 
   -22.04227251      0.82592221      1.12901293      0.82592221    -48.23688787      2.18225317      1.12901293      2.18225317     13.18444626 
   -35.27624224    -15.84248766      3.11394664    -15.84248766    -40.97377965      7.06888617      3.11394664      7.06888617      2.40175447 
   -31.72722040     -2.25430250      5.02474160     -2.25430250    -46.34603056     -5.98111236      5.02474160     -5.98111236    -18.83898589 
   -19.03634235     -1.41486328      8.17896903     -1.41486328    -31.77011189     -0.77930972      8.17896903     -0.77930972     29.35652158 
   -25.33793248     -1.00078010     25.54263750     -1.00078010    -36.37684023     14.79183311     25.54263750     14.79183311      3.37384200 
   -22.79349143    -21.14156951      7.21389755    -21.14156951    -53.78597148      8.85066423      7.21389755      8.85066423     -6.30458274 