15.99999363 0.00000000 0.00000000 0.00000000 15.99999363 0.00000000 0.00000000 0.00000000 25.41349388
15.99999363 0.00000000 0.00000000 0.00000000 15.99999363 0.00000000 0.00000000 0.00000000 25.41149388
15.99999363 0.00000000 0.00000000 0.00000000 15.99999363 0.00000000 0.00000000 0.00000000 25.45498186
15.99999363 0.00000000 0.00000000 0.00000000 15.99999363 0.00000000 0.00000000 0.00000000 25.49389384
15.99999363 0.00000000 0.00000000 0.00000000 15.99999363 0.00000000 0.00000000 0.00000000 25.45248586
15.99999363 0.00000000 0.00000000 0.00000000 15.99999363 0.00000000 0.00000000 0.00000000 25.45038986
15.99999363 0.00000000 0.00000000 0.00000000 15.99999363 0.00000000 0.00000000 0.00000000 25.44118987
15.99999363 0.00000000 0.00000000 0.00000000 15.99999363 0.00000000 0.00000000 0.00000000 25.52998983
15.99999363 0.00000000 0.00000000 0.00000000 15.99999363 0.00000000 0.00000000 0.00000000 25.50018184
15.99999363 0.00000000 0.00000000 0.00000000 15.99999363 0.00000000 0.00000000 0.00000000 25.48018185
15.99999363 0.00000000 0.00000000 0.00000000 15.99999363 0.00000000 0.00000000 0.00000000 25.41469388
15.99999363 0.00000000 0.00000000 0.00000000 15.99999363 0.00000000 0.00000000 0.00000000 25.38618189
15.99999363 0.00000000 0.00000000 0.00000000 15.99999363 0.00000000 0.00000000 0.00000000 25.50248584
15.99999363 0.00000000 0.00000000 0.00000000 15.99999363 0.00000000 0.00000000 0.00000000 25.52248583
15.99999363 0.00000000 0.00000000 0.00000000 15.99999363 0.00000000 0.00000000 0.00000000 25.42078987
15.99999363 0.00000000 0.00000000 0.00000000 15.99999363 0.00000000 0.00000000 0.00000000 25.51189384
15.99999363 0.00000000 0.00000000 0.00000000 15.99999363 0.00000000 0.00000000 0.00000000 25.54248583
15.99999363 0.00000000 0.00000000 0.00000000 15.99999363 0.00000000 0.00000000 0.00000000 25.45498186
15.99999363 0.00000000 0.00000000 0.00000000 15.99999363 0.00000000 0.00000000 0.00000000 25.48928585
15.99999363 0.00000000 0.00000000 0.00000000 15.99999363 0.00000000 0.00000000 0.00000000 25.52998983
15.99999363 0.00000000 0.00000000 0.00000000 15.99999363 0.00000000 0.00000000 0.00000000 25.50299784
15.99999363 0.00000000 0.00000000 0.00000000 15.99999363 0.00000000 0.00000000 0.00000000 25.44398986
15.99999363 0.00000000 0.00000000 0.00000000 15.99999363 0.00000000 0.00000000 0.00000000 25.39869388
15.99999363 0.00000000 0.00000000 0.00000000 15.99999363 0.00000000 0.00000000 0.00000000 25.44918986
15.99999363 0.00000000 0.00000000 0.00000000 15.99999363 0.00000000 0.00000000 0.00000000 25.53278983
15.99999363 0.00000000 0.00000000 0.00000000 15.99999363 0.00000000 0.00000000 0.00000000 25.53238983
15.99999363 0.00000000 0.00000000 0.00000000 15.99999363 0.00000000 0.00000000 0.00000000 25.50629384
15.99999363 0.00000000 0.00000000 0.00000000 15.99999363 0.00000000 0.00000000 0.00000000 25.39528588
15.99999363 0.00000000 0.00000000 0.00000000 15.99999363 0.00000000 0.00000000 0.00000000 25.39378188
15.99999363 0.00000000 0.00000000 0.00000000 15.99999363 0.00000000 0.00000000 0.00000000 25.44238986
15.99999363 0.00000000 0.00000000 0.00000000 15.99999363 0.00000000 0.00000000 0.00000000 25.45309386
15.99999363 0.00000000 0.00000000 0.00000000 15.99999363 0.00000000 0.00000000 0.00000000 25.53658183
15.99999363 0.00000000 0.00000000 0.00000000 15.99999363 0.00000000 0.00000000 0.00000000 25.51819783
15.99999363 0.00000000 0.00000000 0.00000000 15.99999363 0.00000000 0.00000000 0.00000000 25.38418189
15.99999363 0.00000000 0.00000000 0.00000000 15.99999363 0.00000000 0.00000000 0.00000000 25.49389384
15.99999363 0.00000000 0.00000000 0.00000000 15.99999363 0.00000000 0.00000000 0.00000000 25.53749383
15.99999363 0.00000000 0.00000000 0.00000000 15.99999363 0.00000000 0.00000000 0.00000000 25.46058186
15.99999363 0.00000000 0.00000000 0.00000000 15.99999363 0.00000000 0.00000000 0.00000000 25.39758988
15.99999363 0.00000000 0.00000000 0.00000000 15.99999363 0.00000000 0.00000000 0.00000000 25.37939789
15.99999363 0.00000000 0.00000000 0.00000000 15.99999363 0.00000000 0.00000000 0.00000000 25.46899785
15.99999363 0.00000000 0.00000000 0.00000000 15.99999363 0.00000000 0.00000000 0.00000000 25.47579785
15.99999363 0.00000000 0.00000000 0.00000000 15.99999363 0.00000000 0.00000000 0.00000000 25.44358986
15.99999363 0.00000000 0.00000000 0.00000000 15.99999363 0.00000000 0.00000000 0.00000000 25.45688586
15.99999363 0.00000000 0.00000000 0.00000000 15.99999363 0.00000000 0.00000000 0.00000000 25.41218188
15.99999363 0.00000000 0.00000000 0.00000000 15.99999363 0.00000000 0.00000000 0.00000000 25.40158988
15.99999363 0.00000000 0.00000000 0.00000000 15.99999363 0.00000000 0.00000000 0.00000000 25.48149385
15.99999363 0.00000000 0.00000000 0.00000000 15.99999363 0.00000000 0.00000000 0.00000000 25.51869383
15.99999363 0.00000000 0.00000000 0.00000000 15.99999363 0.00000000 0.00000000 0.00000000 25.51898183
15.99999363 0.00000000 0.00000000 0.00000000 15.99999363 0.00000000 0.00000000 0.00000000 25.48358985
15.99999363 0.00000000 0.00000000 0.00000000 15.99999363 0.00000000 0.00000000 0.00000000 25.40438988
15.99999363 0.00000000 0.00000000 0.00000000 15.99999363 0.00000000 0.00000000 0.00000000 25.43818187
15.99999363 0.00000000 0.00000000 0.00000000 15.99999363 0.00000000 0.00000000 0.00000000 25.42848587
15.99999363 0.00000000 0.00000000 0.00000000 15.99999363 0.00000000 0.00000000 0.00000000 25.41789387
15.99999363 0.00000000 0.00000000 0.00000000 15.99999363 0.00000000 0.00000000 0.00000000 25.46518986
15.99999363 0.00000000 0.00000000 0.00000000 15.99999363 0.00000000 0.00000000 0.00000000 25.51328584
15.99999363 0.00000000 0.00000000 0.00000000 15.99999363 0.00000000 0.00000000 0.00000000 25.52848583
15.99999363 0.00000000 0.00000000 0.00000000 15.99999363 0.00000000 0.00000000 0.00000000 25.50058184
15.99999363 0.00000000 0.00000000 0.00000000 15.99999363 0.00000000 0.00000000 0.00000000 25.40909388
15.99999363 0.00000000 0.00000000 0.00000000 15.99999363 0.00000000 0.00000000 0.00000000 25.40738188
15.99999363 0.00000000 0.00000000 0.00000000 15.99999363 0.00000000 0.00000000 0.00000000 25.44528586
15.99999363 0.00000000 0.00000000 0.00000000 15.99999363 0.00000000 0.00000000 0.00000000 25.49549384
15.99999363 0.00000000 0.00000000 0.00000000 15.99999363 0.00000000 0.00000000 0.00000000 25.52618183
15.99999363 0.00000000 0.00000000 0.00000000 15.99999363 0.00000000 0.00000000 0.00000000 25.47328585
15.99999363 0.00000000 0.00000000 0.00000000 15.99999363 0.00000000 0.00000000 0.00000000 25.42528587
15.99999363 0.00000000 0.00000000 0.00000000 15.99999363 0.00000000 0.00000000 0.00000000 25.47488585
15.99999363 0.00000000 0.00000000 0.00000000 15.99999363 0.00000000 0.00000000 0.00000000 25.41358988
15.99999363 0.00000000 0.00000000 0.00000000 15.99999363 0.00000000 0.00000000 0.00000000 25.50848584
15.99999363 0.00000000 0.00000000 0.00000000 15.99999363 0.00000000 0.00000000 0.00000000 25.50958984
15.99999363 0.00000000 0.00000000 0.00000000 15.99999363 0.00000000 0.00000000 0.00000000 25.40469388
15.99999363 0.00000000 0.00000000 0.00000000 15.99999363 0.00000000 0.00000000 0.00000000 25.46318986
15.99999363 0.00000000 0.00000000 0.00000000 15.99999363 0.00000000 0.00000000 0.00000000 25.54088583
15.99999363 0.00000000 0.00000000 0.00000000 15.99999363 0.00000000 0.00000000 0.00000000 25.47509385
15.99999363 0.00000000 0.00000000 0.00000000 15.99999363 0.00000000 0.00000000 0.00000000 25.39558988
15.99999363 0.00000000 0.00000000 0.00000000 15.99999363 0.00000000 0.00000000 0.00000000 25.47379785
15.99999363 0.00000000 0.00000000 0.00000000 15.99999363 0.00000000 0.00000000 0.00000000 25.48589385
15.99999363 0.00000000 0.00000000 0.00000000 15.99999363 0.00000000 0.00000000 0.00000000 25.42109387
15.99999363 0.00000000 0.00000000 0.00000000 15.99999363 0.00000000 0.00000000 0.00000000 25.54618182
15.99999363 0.00000000 0.00000000 0.00000000 15.99999363 0.00000000 0.00000000 0.00000000 25.48619785
15.99999363 0.00000000 0.00000000 0.00000000 15.99999363 0.00000000 0.00000000 0.00000000 25.43398987
15.99999363 0.00000000 0.00000000 0.00000000 15.99999363 0.00000000 0.00000000 0.00000000 25.35918990
15.99999363 0.00000000 0.00000000 0.00000000 15.99999363 0.00000000 0.00000000 0.00000000 25.47048585
15.99999363 0.00000000 0.00000000 0.00000000 15.99999363 0.00000000 0.00000000 0.00000000 25.46798985
15.99999363 0.00000000 0.00000000 0.00000000 15.99999363 0.00000000 0.00000000 0.00000000 25.50838984
15.99999363 0.00000000 0.00000000 0.00000000 15.99999363 0.00000000 0.00000000 0.00000000 25.44678986
15.99999363 0.00000000 0.00000000 0.00000000 15.99999363 0.00000000 0.00000000 0.00000000 25.46269386
15.99999363 0.00000000 0.00000000 0.00000000 15.99999363 0.00000000 0.00000000 0.00000000 25.42008587
15.99999363 0.00000000 0.00000000 0.00000000 15.99999363 0.00000000 0.00000000 0.00000000 25.47278985
15.99999363 0.00000000 0.00000000 0.00000000 15.99999363 0.00000000 0.00000000 0.00000000 25.49069385
15.99999363 0.00000000 0.00000000 0.00000000 15.99999363 0.00000000 0.00000000 0.00000000 25.52998983
15.99999363 0.00000000 0.00000000 0.00000000 15.99999363 0.00000000 0.00000000 0.00000000 25.65248578
15.99999363 0.00000000 0.00000000 0.00000000 15.99999363 0.00000000 0.00000000 0.00000000 25.63598979
15.99999363 0.00000000 0.00000000 0.00000000 15.99999363 0.00000000 0.00000000 0.00000000 25.57978181
15.99999363 0.00000000 0.00000000 0.00000000 15.99999363 0.00000000 0.00000000 0.00000000 25.60368580
15.99999363 0.00000000 0.00000000 0.00000000 15.99999363 0.00000000 0.00000000 0.00000000 25.63928579
15.99999363 0.00000000 0.00000000 0.00000000 15.99999363 0.00000000 0.00000000 0.00000000 25.53978183
15.99999363 0.00000000 0.00000000 0.00000000 15.99999363 0.00000000 0.00000000 0.00000000 25.63408579
15.99999363 0.00000000 0.00000000 0.00000000 15.99999363 0.00000000 0.00000000 0.00000000 25.53888583
15.99999363 0.00000000 0.00000000 0.00000000 15.99999363 0.00000000 0.00000000 0.00000000 25.64378178
15.99999363 0.00000000 0.00000000 0.00000000 15.99999363 0.00000000 0.00000000 0.00000000 25.53038983
15.99999363 0.00000000 0.00000000 0.00000000 15.99999363 0.00000000 0.00000000 0.00000000 25.60808580
15.99999363 0.00000000 0.00000000 0.00000000 15.99999363 0.00000000 0.00000000 0.00000000 25.64718978
15.99999363 0.00000000 0.00000000 0.00000000 15.99999363 0.00000000 0.00000000 0.00000000 25.55789382
15.99999363 0.00000000 0.00000000 0.00000000 15.99999363 0.00000000 0.00000000 0.00000000 25.59518980
15.99999363 0.00000000 0.00000000 0.00000000 15.99999363 0.00000000 0.00000000 0.00000000 25.60269380
15.99999363 0.00000000 0.00000000 0.00000000 15.99999363 0.00000000 0.00000000 0.00000000 25.62818179
15.99999363 0.00000000 0.00000000 0.00000000 15.99999363 0.00000000 0.00000000 0.00000000 25.52248583
15.99999363 0.00000000 0.00000000 0.00000000 15.99999363 0.00000000 0.00000000 0.00000000 25.60008580
15.99999363 0.00000000 0.00000000 0.00000000 15.99999363 0.00000000 0.00000000 0.00000000 25.50368584
15.99999363 0.00000000 0.00000000 0.00000000 15.99999363 0.00000000 0.00000000 0.00000000 25.66158978
15.99999363 0.00000000 0.00000000 0.00000000 15.99999363 0.00000000 0.00000000 0.00000000 25.61979779
15.99999363 0.00000000 0.00000000 0.00000000 15.99999363 0.00000000 0.00000000 0.00000000 25.57149381
15.99999363 0.00000000 0.00000000 0.00000000 15.99999363 0.00000000 0.00000000 0.00000000 25.63688579
15.99999363 0.00000000 0.00000000 0.00000000 15.99999363 0.00000000 0.00000000 0.00000000 25.63478979
15.99999363 0.00000000 0.00000000 0.00000000 15.99999363 0.00000000 0.00000000 0.00000000 25.64029379
15.99999363 0.00000000 0.00000000 0.00000000 15.99999363 0.00000000 0.00000000 0.00000000 25.54918982
15.99999363 0.00000000 0.00000000 0.00000000 15.99999363 0.00000000 0.00000000 0.00000000 25.59598980
15.99999363 0.00000000 0.00000000 0.00000000 15.99999363 0.00000000 0.00000000 0.00000000 25.63949379
15.99999363 0.00000000 0.00000000 0.00000000 15.99999363 0.00000000 0.00000000 0.00000000 25.58078981
15.99999363 0.00000000 0.00000000 0.00000000 15.99999363 0.00000000 0.00000000 0.00000000 25.63038979
15.99999363 0.00000000 0.00000000 0.00000000 15.99999363 0.00000000 0.00000000 0.00000000 25.65568578
15.99999363 0.00000000 0.00000000 0.00000000 15.99999363 0.00000000 0.00000000 0.00000000 25.53629383
15.99999363 0.00000000 0.00000000 0.00000000 15.99999363 0.00000000 0.00000000 0.00000000 25.56568582
15.99999363 0.00000000 0.00000000 0.00000000 15.99999363 0.00000000 0.00000000 0.00000000 25.61678980
15.99999363 0.00000000 0.00000000 0.00000000 15.99999363 0.00000000 0.00000000 0.00000000 25.65318978
15.99999363 0.00000000 0.00000000 0.00000000 15.99999363 0.00000000 0.00000000 0.00000000 25.52998983
15.99999363 0.00000000 0.00000000 0.00000000 15.99999363 0.00000000 0.00000000 0.00000000 25.63358979
15.99999363 0.00000000 0.00000000 0.00000000 15.99999363 0.00000000 0.00000000 0.00000000 25.56808581
15.99999363 0.00000000 0.00000000 0.00000000 15.99999363 0.00000000 0.00000000 0.00000000 25.62818179
15.99999363 0.00000000 0.00000000 0.00000000 15.99999363 0.00000000 0.00000000 0.00000000 25.66288578
15.99999363 0.00000000 0.00000000 0.00000000 15.99999363 0.00000000 0.00000000 0.00000000 25.59818180
15.99999363 0.00000000 0.00000000 0.00000000 15.99999363 0.00000000 0.00000000 0.00000000 25.54358982
15.99999363 0.00000000 0.00000000 0.00000000 15.99999363 0.00000000 0.00000000 0.00000000 25.52149383
15.99999363 0.00000000 0.00000000 0.00000000 15.99999363 0.00000000 0.00000000 0.00000000 25.51989383
15.99999363 0.00000000 0.00000000 0.00000000 15.99999363 0.00000000 0.00000000 0.00000000 25.60688580
15.99999363 0.00000000 0.00000000 0.00000000 15.99999363 0.00000000 0.00000000 0.00000000 25.62128579
15.99999363 0.00000000 0.00000000 0.00000000 15.99999363 0.00000000 0.00000000 0.00000000 25.65088578
15.99999363 0.00000000 0.00000000 0.00000000 15.99999363 0.00000000 0.00000000 0.00000000 25.60029380
15.99999363 0.00000000 0.00000000 0.00000000 15.99999363 0.00000000 0.00000000 0.00000000 25.53168583
15.99999363 0.00000000 0.00000000 0.00000000 15.99999363 0.00000000 0.00000000 0.00000000 25.64248579
15.99999363 0.00000000 0.00000000 0.00000000 15.99999363 0.00000000 0.00000000 0.00000000 25.63048579
15.99999363 0.00000000 0.00000000 0.00000000 15.99999363 0.00000000 0.00000000 0.00000000 25.65098178
15.99999363 0.00000000 0.00000000 0.00000000 15.99999363 0.00000000 0.00000000 0.00000000 25.63838979
15.99999363 0.00000000 0.00000000 0.00000000 15.99999363 0.00000000 0.00000000 0.00000000 25.52888583
15.99999363 0.00000000 0.00000000 0.00000000 15.99999363 0.00000000 0.00000000 0.00000000 25.52709383
15.99999363 0.00000000 0.00000000 0.00000000 15.99999363 0.00000000 0.00000000 0.00000000 25.53078983
15.99999363 0.00000000 0.00000000 0.00000000 15.99999363 0.00000000 0.00000000 0.00000000 25.53808583
15.99999363 0.00000000 0.00000000 0.00000000 15.99999363 0.00000000 0.00000000 0.00000000 25.57848581
15.99999363 0.00000000 0.00000000 0.00000000 15.99999363 0.00000000 0.00000000 0.00000000 25.64638978
15.99999363 0.00000000 0.00000000 0.00000000 15.99999363 0.00000000 0.00000000 0.00000000 25.64168579
15.99999363 0.00000000 0.00000000 0.00000000 15.99999363 0.00000000 0.00000000 0.00000000 25.59869380
15.99999363 0.00000000 0.00000000 0.00000000 15.99999363 0.00000000 0.00000000 0.00000000 25.50968584
15.99999363 0.00000000 0.00000000 0.00000000 15.99999363 0.00000000 0.00000000 0.00000000 25.70709376
15.99999363 0.00000000 0.00000000 0.00000000 15.99999363 0.00000000 0.00000000 0.00000000 25.55798982
15.99999363 0.00000000 0.00000000 0.00000000 15.99999363 0.00000000 0.00000000 0.00000000 25.54408582
15.99999363 0.00000000 0.00000000 0.00000000 15.99999363 0.00000000 0.00000000 0.00000000 25.63368579
15.99999363 0.00000000 0.00000000 0.00000000 15.99999363 0.00000000 0.00000000 0.00000000 25.65878978
15.99999363 0.00000000 0.00000000 0.00000000 15.99999363 0.00000000 0.00000000 0.00000000 25.62869379
15.99999363 0.00000000 0.00000000 0.00000000 15.99999363 0.00000000 0.00000000 0.00000000 25.60869380
15.99999363 0.00000000 0.00000000 0.00000000 15.99999363 0.00000000 0.00000000 0.00000000 25.52998983
15.99999363 0.00000000 0.00000000 0.00000000 15.99999363 0.00000000 0.00000000 0.00000000 25.57389381
15.99999363 0.00000000 0.00000000 0.00000000 15.99999363 0.00000000 0.00000000 0.00000000 25.63838979
15.99999363 0.00000000 0.00000000 0.00000000 15.99999363 0.00000000 0.00000000 0.00000000 25.59128581
15.99999363 0.00000000 0.00000000 0.00000000 15.99999363 0.00000000 0.00000000 0.00000000 25.55568582
15.99999363 0.00000000 0.00000000 0.00000000 15.99999363 0.00000000 0.00000000 0.00000000 25.54208583
15.99999363 0.00000000 0.00000000 0.00000000 15.99999363 0.00000000 0.00000000 0.00000000 25.55789382
15.99999363 0.00000000 0.00000000 0.00000000 15.99999363 0.00000000 0.00000000 0.00000000 25.61368580
15.99999363 0.00000000 0.00000000 0.00000000 15.99999363 0.00000000 0.00000000 0.00000000 25.62978179
15.99999363 0.00000000 0.00000000 0.00000000 15.99999363 0.00000000 0.00000000 0.00000000 25.64658178
15.99999363 0.00000000 0.00000000 0.00000000 15.99999363 0.00000000 0.00000000 0.00000000 25.55779782
15.99999363 0.00000000 0.00000000 0.00000000 15.99999363 0.00000000 0.00000000 0.00000000 25.53739783
15.99999363 0.00000000 0.00000000 0.00000000 15.99999363 0.00000000 0.00000000 0.00000000 25.53578183
15.99999363 0.00000000 0.00000000 0.00000000 15.99999363 0.00000000 0.00000000 0.00000000 25.64259779
15.99999363 0.00000000 0.00000000 0.00000000 15.99999363 0.00000000 0.00000000 0.00000000 25.64538178
15.99999363 0.00000000 0.00000000 0.00000000 15.99999363 0.00000000 0.00000000 0.00000000 25.54539782
15.99999363 0.00000000 0.00000000 0.00000000 15.99999363 0.00000000 0.00000000 0.00000000 25.53858183
15.99999363 0.00000000 0.00000000 0.00000000 15.99999363 0.00000000 0.00000000 0.00000000 25.53789383
15.99999363 0.00000000 0.00000000 0.00000000 15.99999363 0.00000000 0.00000000 0.00000000 25.63389379
15.99999363 0.00000000 0.00000000 0.00000000 15.99999363 0.00000000 0.00000000 0.00000000 25.64229379
15.99999363 0.00000000 0.00000000 0.00000000 15.99999363 0.00000000 0.00000000 0.00000000 25.61829379
15.99999363 0.00000000 0.00000000 0.00000000 15.99999363 0.00000000 0.00000000 0.00000000 25.53549383
15.99999363 0.00000000 0.00000000 0.00000000 15.99999363 0.00000000 0.00000000 0.00000000 25.54368582
15.99999363 0.00000000 0.00000000 0.00000000 15.99999363 0.00000000 0.00000000 0.00000000 25.57139781
15.99999363 0.00000000 0.00000000 0.00000000 15.99999363 0.00000000 0.00000000 0.00000000 25.58949381
15.99999363 0.00000000 0.00000000 0.00000000 15.99999363 0.00000000 0.00000000 0.00000000 25.62418179
15.99999363 0.00000000 0.00000000 0.00000000 15.99999363 0.00000000 0.00000000 0.00000000 25.63429379
15.99999363 0.00000000 0.00000000 0.00000000 15.99999363 0.00000000 0.00000000 0.00000000 25.53389383
15.99999363 0.00000000 0.00000000 0.00000000 15.99999363 0.00000000 0.00000000 0.00000000 25.59539780
15.99999363 0.00000000 0.00000000 0.00000000 15.99999363 0.00000000 0.00000000 0.00000000 25.58458181
15.99999363 0.00000000 0.00000000 0.00000000 15.99999363 0.00000000 0.00000000 0.00000000 25.56568582
15.99999363 0.00000000 0.00000000 0.00000000 15.99999363 0.00000000 0.00000000 0.00000000 25.63778179
15.99999363 0.00000000 0.00000000 0.00000000 15.99999363 0.00000000 0.00000000 0.00000000 25.58598981
15.99999363 0.00000000 0.00000000 0.00000000 15.99999363 0.00000000 0.00000000 0.00000000 25.62549379
15.99999363 0.00000000 0.00000000 0.00000000 15.99999363 0.00000000 0.00000000 0.00000000 25.55459782
15.99999363 0.00000000 0.00000000 0.00000000 15.99999363 0.00000000 0.00000000 0.00000000 25.62829379
15.99999363 0.00000000 0.00000000 0.00000000 15.99999363 0.00000000 0.00000000 0.00000000 25.66419778
15.99999363 0.00000000 0.00000000 0.00000000 15.99999363 0.00000000 0.00000000 0.00000000 25.58088581
15.99999363 0.00000000 0.00000000 0.00000000 15.99999363 0.00000000 0.00000000 0.00000000 25.62928579
15.99999363 0.00000000 0.00000000 0.00000000 15.99999363 0.00000000 0.00000000 0.00000000 25.57078981
15.99999363 0.00000000 0.00000000 0.00000000 15.99999363 0.00000000 0.00000000 0.00000000 25.62299779
15.99999363 0.00000000 0.00000000 0.00000000 15.99999363 0.00000000 0.00000000 0.00000000 25.47059785
15.99999363 0.00000000 0.00000000 0.00000000 15.99999363 0.00000000 0.00000000 0.00000000 25.58208581
15.99999363 0.00000000 0.00000000 0.00000000 15.99999363 0.00000000 0.00000000 0.00000000 25.57518981
15.99999363 0.00000000 0.00000000 0.00000000 15.99999363 0.00000000 0.00000000 0.00000000 25.54928582
15.99999363 0.00000000 0.00000000 0.00000000 15.99999363 0.00000000 0.00000000 0.00000000 25.56059782
15.99999363 0.00000000 0.00000000 0.00000000 15.99999363 0.00000000 0.00000000 0.00000000 25.50629384
15.99999363 0.00000000 0.00000000 0.00000000 15.99999363 0.00000000 0.00000000 0.00000000 25.54038983
15.99999363 0.00000000 0.00000000 0.00000000 15.99999363 0.00000000 0.00000000 0.00000000 25.60038980
15.99999363 0.00000000 0.00000000 0.00000000 15.99999363 0.00000000 0.00000000 0.00000000 25.58949381
15.99999363 0.00000000 0.00000000 0.00000000 15.99999363 0.00000000 0.00000000 0.00000000 25.59198981
15.99999363 0.00000000 0.00000000 0.00000000 15.99999363 0.00000000 0.00000000 0.00000000 25.66808578
15.99999363 0.00000000 0.00000000 0.00000000 15.99999363 0.00000000 0.00000000 0.00000000 25.59968580
15.99999363 0.00000000 0.00000000 0.00000000 15.99999363 0.00000000 0.00000000 0.00000000 25.54819782
15.99999363 0.00000000 0.00000000 0.00000000 15.99999363 0.00000000 0.00000000 0.00000000 25.53299783
15.99999363 0.00000000 0.00000000 0.00000000 15.99999363 0.00000000 0.00000000 0.00000000 25.56048582
15.99999363 0.00000000 0.00000000 0.00000000 15.99999363 0.00000000 0.00000000 0.00000000 25.64168579
15.99999363 0.00000000 0.00000000 0.00000000 15.99999363 0.00000000 0.00000000 0.00000000 25.58208581
15.99999363 0.00000000 0.00000000 0.00000000 15.99999363 0.00000000 0.00000000 0.00000000 25.65088578
15.99999363 0.00000000 0.00000000 0.00000000 15.99999363 0.00000000 0.00000000 0.00000000 25.58458181
15.99999363 0.00000000 0.00000000 0.00000000 15.99999363 0.00000000 0.00000000 0.00000000 25.62779779
15.99999363 0.00000000 0.00000000 0.00000000 15.99999363 0.00000000 0.00000000 0.00000000 25.65448578
15.99999363 0.00000000 0.00000000 0.00000000 15.99999363 0.00000000 0.00000000 0.00000000 25.65589378
15.99999363 0.00000000 0.00000000 0.00000000 15.99999363 0.00000000 0.00000000 0.00000000 25.54368582
15.99999363 0.00000000 0.00000000 0.00000000 15.99999363 0.00000000 0.00000000 0.00000000 25.57798981
15.99999363 0.00000000 0.00000000 0.00000000 15.99999363 0.00000000 0.00000000 0.00000000 25.61949379
15.99999363 0.00000000 0.00000000 0.00000000 15.99999363 0.00000000 0.00000000 0.00000000 25.59448580
15.99999363 0.00000000 0.00000000 0.00000000 15.99999363 0.00000000 0.00000000 0.00000000 25.57918981
15.99999363 0.00000000 0.00000000 0.00000000 15.99999363 0.00000000 0.00000000 0.00000000 25.65029378
15.99999363 0.00000000 0.00000000 0.00000000 15.99999363 0.00000000 0.00000000 0.00000000 25.65358978
15.99999363 0.00000000 0.00000000 0.00000000 15.99999363 0.00000000 0.00000000 0.00000000 25.57619781
15.99999363 0.00000000 0.00000000 0.00000000 15.99999363 0.00000000 0.00000000 0.00000000 25.53789383
15.99999363 0.00000000 0.00000000 0.00000000 15.99999363 0.00000000 0.00000000 0.00000000 25.64389378
15.99999363 0.00000000 0.00000000 0.00000000 15.99999363 0.00000000 0.00000000 0.00000000 25.58448581
15.99999363 0.00000000 0.00000000 0.00000000 15.99999363 0.00000000 0.00000000 0.00000000 25.52998983
15.99999363 0.00000000 0.00000000 0.00000000 15.99999363 0.00000000 0.00000000 0.00000000 25.56598982
15.99999363 0.00000000 0.00000000 0.00000000 15.99999363 0.00000000 0.00000000 0.00000000 25.60069380
15.99999363 0.00000000 0.00000000 0.00000000 15.99999363 0.00000000 0.00000000 0.00000000 25.61408580
15.99999363 0.00000000 0.00000000 0.00000000 15.99999363 0.00000000 0.00000000 0.00000000 25.62008579
15.99999363 0.00000000 0.00000000 0.00000000 15.99999363 0.00000000 0.00000000 0.00000000 25.56608582
15.99999363 0.00000000 0.00000000 0.00000000 15.99999363 0.00000000 0.00000000 0.00000000 25.59408580
15.99999363 0.00000000 0.00000000 0.00000000 15.99999363 0.00000000 0.00000000 0.00000000 25.63699779
15.99999363 0.00000000 0.00000000 0.00000000 15.99999363 0.00000000 0.00000000 0.00000000 25.62248579
15.99999363 0.00000000 0.00000000 0.00000000 15.99999363 0.00000000 0.00000000 0.00000000 25.56549382
15.99999363 0.00000000 0.00000000 0.00000000 15.99999363 0.00000000 0.00000000 0.00000000 25.60368580
15.99999363 0.00000000 0.00000000 0.00000000 15.99999363 0.00000000 0.00000000 0.00000000 25.53398983
15.99999363 0.00000000 0.00000000 0.00000000 15.99999363 0.00000000 0.00000000 0.00000000 25.63018179
15.99999363 0.00000000 0.00000000 0.00000000 15.99999363 0.00000000 0.00000000 0.00000000 25.66029378
15.99999363 0.00000000 0.00000000 0.00000000 15.99999363 0.00000000 0.00000000 0.00000000 25.56008582
15.99999363 0.00000000 0.00000000 0.00000000 15.99999363 0.00000000 0.00000000 0.00000000 25.62909379
15.99999363 0.00000000 0.00000000 0.00000000 15.99999363 0.00000000 0.00000000 0.00000000 25.58589381
15.99999363 0.00000000 0.00000000 0.00000000 15.99999363 0.00000000 0.00000000 0.00000000 25.52928583
15.99999363 0.00000000 0.00000000 0.00000000 15.99999363 0.00000000 0.00000000 0.00000000 25.53208583
15.99999363 0.00000000 0.00000000 0.00000000 15.99999363 0.00000000 0.00000000 0.00000000 25.54248583
15.99999363 0.00000000 0.00000000 0.00000000 15.99999363 0.00000000 0.00000000 0.00000000 25.56509382
15.99999363 0.00000000 0.00000000 0.00000000 15.99999363 0.00000000 0.00000000 0.00000000 25.58118981
15.99999363 0.00000000 0.00000000 0.00000000 15.99999363 0.00000000 0.00000000 0.00000000 25.56339782
15.99999363 0.00000000 0.00000000 0.00000000 15.99999363 0.00000000 0.00000000 0.00000000 25.52539783
15.99999363 0.00000000 0.00000000 0.00000000 15.99999363 0.00000000 0.00000000 0.00000000 25.62758979
15.99999363 0.00000000 0.00000000 0.00000000 15.99999363 0.00000000 0.00000000 0.00000000 25.66888577
15.99999363 0.00000000 0.00000000 0.00000000 15.99999363 0.00000000 0.00000000 0.00000000 25.57379781
15.99999363 0.00000000 0.00000000 0.00000000 15.99999363 0.00000000 0.00000000 0.00000000 25.63438979
15.99999363 0.00000000 0.00000000 0.00000000 15.99999363 0.00000000 0.00000000 0.00000000 25.64098179
15.99999363 0.00000000 0.00000000 0.00000000 15.99999363 0.00000000 0.00000000 0.00000000 25.58568581
15.99999363 0.00000000 0.00000000 0.00000000 15.99999363 0.00000000 0.00000000 0.00000000 25.50378184
15.99999363 0.00000000 0.00000000 0.00000000 15.99999363 0.00000000 0.00000000 0.00000000 25.60998980
15.99999363 0.00000000 0.00000000 0.00000000 15.99999363 0.00000000 0.00000000 0.00000000 25.54869382
15.99999363 0.00000000 0.00000000 0.00000000 15.99999363 0.00000000 0.00000000 0.00000000 25.63778179
15.99999363 0.00000000 0.00000000 0.00000000 15.99999363 0.00000000 0.00000000 0.00000000 25.60168580
15.99999363 0.00000000 0.00000000 0.00000000 15.99999363 0.00000000 0.00000000 0.00000000 25.68139777
15.99999363 0.00000000 0.00000000 0.00000000 15.99999363 0.00000000 0.00000000 0.00000000 25.61238980
15.99999363 0.00000000 0.00000000 0.00000000 15.99999363 0.00000000 0.00000000 0.00000000 25.54869382
15.99999363 0.00000000 0.00000000 0.00000000 15.99999363 0.00000000 0.00000000 0.00000000 25.59928580
15.99999363 0.00000000 0.00000000 0.00000000 15.99999363 0.00000000 0.00000000 0.00000000 25.55998982
15.99999363 0.00000000 0.00000000 0.00000000 15.99999363 0.00000000 0.00000000 0.00000000 25.60438980
15.99999363 0.00000000 0.00000000 0.00000000 15.99999363 0.00000000 0.00000000 0.00000000 25.62718979
15.99999363 0.00000000 0.00000000 0.00000000 15.99999363 0.00000000 0.00000000 0.00000000 25.54918982
15.99999363 0.00000000 0.00000000 0.00000000 15.99999363 0.00000000 0.00000000 0.00000000 25.61949379
15.99999363 0.00000000 0.00000000 0.00000000 15.99999363 0.00000000 0.00000000 0.00000000 25.66888577
15.99999363 0.00000000 0.00000000 0.00000000 15.99999363 0.00000000 0.00000000 0.00000000 25.63358979
15.99999363 0.00000000 0.00000000 0.00000000 15.99999363 0.00000000 0.00000000 0.00000000 25.68118977
15.99999363 0.00000000 0.00000000 0.00000000 15.99999363 0.00000000 0.00000000 0.00000000 25.61358980
15.99999363 0.00000000 0.00000000 0.00000000 15.99999363 0.00000000 0.00000000 0.00000000 25.54539782
15.99999363 0.00000000 0.00000000 0.00000000 15.99999363 0.00000000 0.00000000 0.00000000 25.58698181
15.99999363 0.00000000 0.00000000 0.00000000 15.99999363 0.00000000 0.00000000 0.00000000 25.61008580
15.99999363 0.00000000 0.00000000 0.00000000 15.99999363 0.00000000 0.00000000 0.00000000 25.52909383
15.99999363 0.00000000 0.00000000 0.00000000 15.99999363 0.00000000 0.00000000 0.00000000 25.53989383
15.99999363 0.00000000 0.00000000 0.00000000 15.99999363 0.00000000 0.00000000 0.00000000 25.59618180
15.99999363 0.00000000 0.00000000 0.00000000 15.99999363 0.00000000 0.00000000 0.00000000 25.67598977
15.99999363 0.00000000 0.00000000 0.00000000 15.99999363 0.00000000 0.00000000 0.00000000 25.52718983
15.99999363 0.00000000 0.00000000 0.00000000 15.99999363 0.00000000 0.00000000 0.00000000 25.54648582
15.99999363 0.00000000 0.00000000 0.00000000 15.99999363 0.00000000 0.00000000 0.00000000 25.53378183
15.99999363 0.00000000 0.00000000 0.00000000 15.99999363 0.00000000 0.00000000 0.00000000 25.58398981
15.99999363 0.00000000 0.00000000 0.00000000 15.99999363 0.00000000 0.00000000 0.00000000 25.62989379
15.99999363 0.00000000 0.00000000 0.00000000 15.99999363 0.00000000 0.00000000 0.00000000 25.64829378
15.99999363 0.00000000 0.00000000 0.00000000 15.99999363 0.00000000 0.00000000 0.00000000 25.66288578