15.99999363 0.00000000 0.00000000 0.00000000 15.99999363 0.00000000 0.00000000 0.00000000 25.52998983
15.99999363 0.00000000 0.00000000 0.00000000 15.99999363 0.00000000 0.00000000 0.00000000 25.50189384
15.99999363 0.00000000 0.00000000 0.00000000 15.99999363 0.00000000 0.00000000 0.00000000 25.51019784
15.99999363 0.00000000 0.00000000 0.00000000 15.99999363 0.00000000 0.00000000 0.00000000 25.50598984
15.99999363 0.00000000 0.00000000 0.00000000 15.99999363 0.00000000 0.00000000 0.00000000 25.50918984
15.99999363 0.00000000 0.00000000 0.00000000 15.99999363 0.00000000 0.00000000 0.00000000 25.49219785
15.99999363 0.00000000 0.00000000 0.00000000 15.99999363 0.00000000 0.00000000 0.00000000 25.49858184
15.99999363 0.00000000 0.00000000 0.00000000 15.99999363 0.00000000 0.00000000 0.00000000 25.53168583
15.99999363 0.00000000 0.00000000 0.00000000 15.99999363 0.00000000 0.00000000 0.00000000 25.52138183
15.99999363 0.00000000 0.00000000 0.00000000 15.99999363 0.00000000 0.00000000 0.00000000 25.50808584
15.99999363 0.00000000 0.00000000 0.00000000 15.99999363 0.00000000 0.00000000 0.00000000 25.52998983
15.99999363 0.00000000 0.00000000 0.00000000 15.99999363 0.00000000 0.00000000 0.00000000 25.55168582
15.99999363 0.00000000 0.00000000 0.00000000 15.99999363 0.00000000 0.00000000 0.00000000 25.49168585
15.99999363 0.00000000 0.00000000 0.00000000 15.99999363 0.00000000 0.00000000 0.00000000 25.48808585
15.99999363 0.00000000 0.00000000 0.00000000 15.99999363 0.00000000 0.00000000 0.00000000 25.55179782
15.99999363 0.00000000 0.00000000 0.00000000 15.99999363 0.00000000 0.00000000 0.00000000 25.49659784
15.99999363 0.00000000 0.00000000 0.00000000 15.99999363 0.00000000 0.00000000 0.00000000 25.50629384
15.99999363 0.00000000 0.00000000 0.00000000 15.99999363 0.00000000 0.00000000 0.00000000 25.49869384
15.99999363 0.00000000 0.00000000 0.00000000 15.99999363 0.00000000 0.00000000 0.00000000 25.52958983
15.99999363 0.00000000 0.00000000 0.00000000 15.99999363 0.00000000 0.00000000 0.00000000 25.52398983
15.99999363 0.00000000 0.00000000 0.00000000 15.99999363 0.00000000 0.00000000 0.00000000 25.50058184
15.99999363 0.00000000 0.00000000 0.00000000 15.99999363 0.00000000 0.00000000 0.00000000 25.49499784
15.99999363 0.00000000 0.00000000 0.00000000 15.99999363 0.00000000 0.00000000 0.00000000 25.51768584
15.99999363 0.00000000 0.00000000 0.00000000 15.99999363 0.00000000 0.00000000 0.00000000 25.53408583
15.99999363 0.00000000 0.00000000 0.00000000 15.99999363 0.00000000 0.00000000 0.00000000 25.48958985
15.99999363 0.00000000 0.00000000 0.00000000 15.99999363 0.00000000 0.00000000 0.00000000 25.51019784
15.99999363 0.00000000 0.00000000 0.00000000 15.99999363 0.00000000 0.00000000 0.00000000 25.53339783
15.99999363 0.00000000 0.00000000 0.00000000 15.99999363 0.00000000 0.00000000 0.00000000 25.48038985
15.99999363 0.00000000 0.00000000 0.00000000 15.99999363 0.00000000 0.00000000 0.00000000 25.51598984
15.99999363 0.00000000 0.00000000 0.00000000 15.99999363 0.00000000 0.00000000 0.00000000 25.51189384
15.99999363 0.00000000 0.00000000 0.00000000 15.99999363 0.00000000 0.00000000 0.00000000 25.42448587
15.99999363 0.00000000 0.00000000 0.00000000 15.99999363 0.00000000 0.00000000 0.00000000 25.45989386
15.99999363 0.00000000 0.00000000 0.00000000 15.99999363 0.00000000 0.00000000 0.00000000 25.44538186
15.99999363 0.00000000 0.00000000 0.00000000 15.99999363 0.00000000 0.00000000 0.00000000 25.59248581
15.99999363 0.00000000 0.00000000 0.00000000 15.99999363 0.00000000 0.00000000 0.00000000 25.54379782
15.99999363 0.00000000 0.00000000 0.00000000 15.99999363 0.00000000 0.00000000 0.00000000 25.42608587
15.99999363 0.00000000 0.00000000 0.00000000 15.99999363 0.00000000 0.00000000 0.00000000 25.54568582
15.99999363 0.00000000 0.00000000 0.00000000 15.99999363 0.00000000 0.00000000 0.00000000 25.48928585
15.99999363 0.00000000 0.00000000 0.00000000 15.99999363 0.00000000 0.00000000 0.00000000 25.55309382
15.99999363 0.00000000 0.00000000 0.00000000 15.99999363 0.00000000 0.00000000 0.00000000 25.50398984
15.99999363 0.00000000 0.00000000 0.00000000 15.99999363 0.00000000 0.00000000 0.00000000 25.51128584
15.99999363 0.00000000 0.00000000 0.00000000 15.99999363 0.00000000 0.00000000 0.00000000 25.51629384
15.99999363 0.00000000 0.00000000 0.00000000 15.99999363 0.00000000 0.00000000 0.00000000 25.50949384
15.99999363 0.00000000 0.00000000 0.00000000 15.99999363 0.00000000 0.00000000 0.00000000 25.49208585
15.99999363 0.00000000 0.00000000 0.00000000 15.99999363 0.00000000 0.00000000 0.00000000 25.49038985
15.99999363 0.00000000 0.00000000 0.00000000 15.99999363 0.00000000 0.00000000 0.00000000 25.50749384
15.99999363 0.00000000 0.00000000 0.00000000 15.99999363 0.00000000 0.00000000 0.00000000 25.53168583
15.99999363 0.00000000 0.00000000 0.00000000 15.99999363 0.00000000 0.00000000 0.00000000 25.54648582
15.99999363 0.00000000 0.00000000 0.00000000 15.99999363 0.00000000 0.00000000 0.00000000 25.54029383
15.99999363 0.00000000 0.00000000 0.00000000 15.99999363 0.00000000 0.00000000 0.00000000 25.51728584
15.99999363 0.00000000 0.00000000 0.00000000 15.99999363 0.00000000 0.00000000 0.00000000 25.49118985
15.99999363 0.00000000 0.00000000 0.00000000 15.99999363 0.00000000 0.00000000 0.00000000 25.49138185
15.99999363 0.00000000 0.00000000 0.00000000 15.99999363 0.00000000 0.00000000 0.00000000 25.51768584
15.99999363 0.00000000 0.00000000 0.00000000 15.99999363 0.00000000 0.00000000 0.00000000 25.54549382
15.99999363 0.00000000 0.00000000 0.00000000 15.99999363 0.00000000 0.00000000 0.00000000 25.48888585
15.99999363 0.00000000 0.00000000 0.00000000 15.99999363 0.00000000 0.00000000 0.00000000 25.48408585
15.99999363 0.00000000 0.00000000 0.00000000 15.99999363 0.00000000 0.00000000 0.00000000 25.52408583
15.99999363 0.00000000 0.00000000 0.00000000 15.99999363 0.00000000 0.00000000 0.00000000 25.48608585
15.99999363 0.00000000 0.00000000 0.00000000 15.99999363 0.00000000 0.00000000 0.00000000 25.48558985
15.99999363 0.00000000 0.00000000 0.00000000 15.99999363 0.00000000 0.00000000 0.00000000 25.50368584
15.99999363 0.00000000 0.00000000 0.00000000 15.99999363 0.00000000 0.00000000 0.00000000 25.52949383
15.99999363 0.00000000 0.00000000 0.00000000 15.99999363 0.00000000 0.00000000 0.00000000 25.54768582
15.99999363 0.00000000 0.00000000 0.00000000 15.99999363 0.00000000 0.00000000 0.00000000 25.53418183
15.99999363 0.00000000 0.00000000 0.00000000 15.99999363 0.00000000 0.00000000 0.00000000 25.54118983
15.99999363 0.00000000 0.00000000 0.00000000 15.99999363 0.00000000 0.00000000 0.00000000 25.46269386
15.99999363 0.00000000 0.00000000 0.00000000 15.99999363 0.00000000 0.00000000 0.00000000 25.48338185
15.99999363 0.00000000 0.00000000 0.00000000 15.99999363 0.00000000 0.00000000 0.00000000 25.52648583
15.99999363 0.00000000 0.00000000 0.00000000 15.99999363 0.00000000 0.00000000 0.00000000 25.55638982
15.99999363 0.00000000 0.00000000 0.00000000 15.99999363 0.00000000 0.00000000 0.00000000 25.45109386
15.99999363 0.00000000 0.00000000 0.00000000 15.99999363 0.00000000 0.00000000 0.00000000 25.53768583
15.99999363 0.00000000 0.00000000 0.00000000 15.99999363 0.00000000 0.00000000 0.00000000 25.55168582
15.99999363 0.00000000 0.00000000 0.00000000 15.99999363 0.00000000 0.00000000 0.00000000 25.46678986
15.99999363 0.00000000 0.00000000 0.00000000 15.99999363 0.00000000 0.00000000 0.00000000 25.53688583
15.99999363 0.00000000 0.00000000 0.00000000 15.99999363 0.00000000 0.00000000 0.00000000 25.57478981
15.99999363 0.00000000 0.00000000 0.00000000 15.99999363 0.00000000 0.00000000 0.00000000 25.48859785
15.99999363 0.00000000 0.00000000 0.00000000 15.99999363 0.00000000 0.00000000 0.00000000 25.49549384
15.99999363 0.00000000 0.00000000 0.00000000 15.99999363 0.00000000 0.00000000 0.00000000 25.47118985
15.99999363 0.00000000 0.00000000 0.00000000 15.99999363 0.00000000 0.00000000 0.00000000 25.49958984
15.99999363 0.00000000 0.00000000 0.00000000 15.99999363 0.00000000 0.00000000 0.00000000 25.50429384
15.99999363 0.00000000 0.00000000 0.00000000 15.99999363 0.00000000 0.00000000 0.00000000 25.45029386
15.99999363 0.00000000 0.00000000 0.00000000 15.99999363 0.00000000 0.00000000 0.00000000 25.58238981
15.99999363 0.00000000 0.00000000 0.00000000 15.99999363 0.00000000 0.00000000 0.00000000 25.53578183
15.99999363 0.00000000 0.00000000 0.00000000 15.99999363 0.00000000 0.00000000 0.00000000 25.45038986
15.99999363 0.00000000 0.00000000 0.00000000 15.99999363 0.00000000 0.00000000 0.00000000 25.54398982
15.99999363 0.00000000 0.00000000 0.00000000 15.99999363 0.00000000 0.00000000 0.00000000 25.42549387
15.99999363 0.00000000 0.00000000 0.00000000 15.99999363 0.00000000 0.00000000 0.00000000 25.53648583
15.99999363 0.00000000 0.00000000 0.00000000 15.99999363 0.00000000 0.00000000 0.00000000 25.51869383
15.99999363 0.00000000 0.00000000 0.00000000 15.99999363 0.00000000 0.00000000 0.00000000 25.54008583
15.99999363 0.00000000 0.00000000 0.00000000 15.99999363 0.00000000 0.00000000 0.00000000 25.45619786
15.99999363 0.00000000 0.00000000 0.00000000 15.99999363 0.00000000 0.00000000 0.00000000 25.52318983
15.99999363 0.00000000 0.00000000 0.00000000 15.99999363 0.00000000 0.00000000 0.00000000 25.44899786
15.99999363 0.00000000 0.00000000 0.00000000 15.99999363 0.00000000 0.00000000 0.00000000 25.53688583
15.99999363 0.00000000 0.00000000 0.00000000 15.99999363 0.00000000 0.00000000 0.00000000 25.61958979
15.99999363 0.00000000 0.00000000 0.00000000 15.99999363 0.00000000 0.00000000 0.00000000 25.62758979
15.99999363 0.00000000 0.00000000 0.00000000 15.99999363 0.00000000 0.00000000 0.00000000 25.60608580
15.99999363 0.00000000 0.00000000 0.00000000 15.99999363 0.00000000 0.00000000 0.00000000 25.63029379
15.99999363 0.00000000 0.00000000 0.00000000 15.99999363 0.00000000 0.00000000 0.00000000 25.59158981
15.99999363 0.00000000 0.00000000 0.00000000 15.99999363 0.00000000 0.00000000 0.00000000 25.55768582
15.99999363 0.00000000 0.00000000 0.00000000 15.99999363 0.00000000 0.00000000 0.00000000 25.58728581
15.99999363 0.00000000 0.00000000 0.00000000 15.99999363 0.00000000 0.00000000 0.00000000 25.52998983
15.99999363 0.00000000 0.00000000 0.00000000 15.99999363 0.00000000 0.00000000 0.00000000 25.53629383
15.99999363 0.00000000 0.00000000 0.00000000 15.99999363 0.00000000 0.00000000 0.00000000 25.55888582
15.99999363 0.00000000 0.00000000 0.00000000 15.99999363 0.00000000 0.00000000 0.00000000 25.54358982
15.99999363 0.00000000 0.00000000 0.00000000 15.99999363 0.00000000 0.00000000 0.00000000 25.53589383
15.99999363 0.00000000 0.00000000 0.00000000 15.99999363 0.00000000 0.00000000 0.00000000 25.55528582
15.99999363 0.00000000 0.00000000 0.00000000 15.99999363 0.00000000 0.00000000 0.00000000 25.52998983
15.99999363 0.00000000 0.00000000 0.00000000 15.99999363 0.00000000 0.00000000 0.00000000 25.60168580
15.99999363 0.00000000 0.00000000 0.00000000 15.99999363 0.00000000 0.00000000 0.00000000 25.54288582
15.99999363 0.00000000 0.00000000 0.00000000 15.99999363 0.00000000 0.00000000 0.00000000 25.60149380
15.99999363 0.00000000 0.00000000 0.00000000 15.99999363 0.00000000 0.00000000 0.00000000 25.57109381
15.99999363 0.00000000 0.00000000 0.00000000 15.99999363 0.00000000 0.00000000 0.00000000 25.50088584
15.99999363 0.00000000 0.00000000 0.00000000 15.99999363 0.00000000 0.00000000 0.00000000 25.58368581
15.99999363 0.00000000 0.00000000 0.00000000 15.99999363 0.00000000 0.00000000 0.00000000 25.59419780
15.99999363 0.00000000 0.00000000 0.00000000 15.99999363 0.00000000 0.00000000 0.00000000 25.59238981
15.99999363 0.00000000 0.00000000 0.00000000 15.99999363 0.00000000 0.00000000 0.00000000 25.63898179
15.99999363 0.00000000 0.00000000 0.00000000 15.99999363 0.00000000 0.00000000 0.00000000 25.56478982
15.99999363 0.00000000 0.00000000 0.00000000 15.99999363 0.00000000 0.00000000 0.00000000 25.61909379
15.99999363 0.00000000 0.00000000 0.00000000 15.99999363 0.00000000 0.00000000 0.00000000 25.59379780
15.99999363 0.00000000 0.00000000 0.00000000 15.99999363 0.00000000 0.00000000 0.00000000 25.53069383
15.99999363 0.00000000 0.00000000 0.00000000 15.99999363 0.00000000 0.00000000 0.00000000 25.59238981
15.99999363 0.00000000 0.00000000 0.00000000 15.99999363 0.00000000 0.00000000 0.00000000 25.65008578
15.99999363 0.00000000 0.00000000 0.00000000 15.99999363 0.00000000 0.00000000 0.00000000 25.60728580
15.99999363 0.00000000 0.00000000 0.00000000 15.99999363 0.00000000 0.00000000 0.00000000 25.65318978
15.99999363 0.00000000 0.00000000 0.00000000 15.99999363 0.00000000 0.00000000 0.00000000 25.52408583
15.99999363 0.00000000 0.00000000 0.00000000 15.99999363 0.00000000 0.00000000 0.00000000 25.58749381
15.99999363 0.00000000 0.00000000 0.00000000 15.99999363 0.00000000 0.00000000 0.00000000 25.58968581
15.99999363 0.00000000 0.00000000 0.00000000 15.99999363 0.00000000 0.00000000 0.00000000 25.65629378
15.99999363 0.00000000 0.00000000 0.00000000 15.99999363 0.00000000 0.00000000 0.00000000 25.56238982
15.99999363 0.00000000 0.00000000 0.00000000 15.99999363 0.00000000 0.00000000 0.00000000 25.63789379
15.99999363 0.00000000 0.00000000 0.00000000 15.99999363 0.00000000 0.00000000 0.00000000 25.65819778
15.99999363 0.00000000 0.00000000 0.00000000 15.99999363 0.00000000 0.00000000 0.00000000 25.55779782
15.99999363 0.00000000 0.00000000 0.00000000 15.99999363 0.00000000 0.00000000 0.00000000 25.60838980
15.99999363 0.00000000 0.00000000 0.00000000 15.99999363 0.00000000 0.00000000 0.00000000 25.60098180
15.99999363 0.00000000 0.00000000 0.00000000 15.99999363 0.00000000 0.00000000 0.00000000 25.64998978
15.99999363 0.00000000 0.00000000 0.00000000 15.99999363 0.00000000 0.00000000 0.00000000 25.54138183
15.99999363 0.00000000 0.00000000 0.00000000 15.99999363 0.00000000 0.00000000 0.00000000 25.55568582
15.99999363 0.00000000 0.00000000 0.00000000 15.99999363 0.00000000 0.00000000 0.00000000 25.57048581
15.99999363 0.00000000 0.00000000 0.00000000 15.99999363 0.00000000 0.00000000 0.00000000 25.60888580
15.99999363 0.00000000 0.00000000 0.00000000 15.99999363 0.00000000 0.00000000 0.00000000 25.65078978
15.99999363 0.00000000 0.00000000 0.00000000 15.99999363 0.00000000 0.00000000 0.00000000 25.66818178
15.99999363 0.00000000 0.00000000 0.00000000 15.99999363 0.00000000 0.00000000 0.00000000 25.56138182
15.99999363 0.00000000 0.00000000 0.00000000 15.99999363 0.00000000 0.00000000 0.00000000 25.58448581
15.99999363 0.00000000 0.00000000 0.00000000 15.99999363 0.00000000 0.00000000 0.00000000 25.66509378
15.99999363 0.00000000 0.00000000 0.00000000 15.99999363 0.00000000 0.00000000 0.00000000 25.53238983
15.99999363 0.00000000 0.00000000 0.00000000 15.99999363 0.00000000 0.00000000 0.00000000 25.65349378
15.99999363 0.00000000 0.00000000 0.00000000 15.99999363 0.00000000 0.00000000 0.00000000 25.61688580
15.99999363 0.00000000 0.00000000 0.00000000 15.99999363 0.00000000 0.00000000 0.00000000 25.53309383
15.99999363 0.00000000 0.00000000 0.00000000 15.99999363 0.00000000 0.00000000 0.00000000 25.59998980
15.99999363 0.00000000 0.00000000 0.00000000 15.99999363 0.00000000 0.00000000 0.00000000 25.65418178
15.99999363 0.00000000 0.00000000 0.00000000 15.99999363 0.00000000 0.00000000 0.00000000 25.62638979
15.99999363 0.00000000 0.00000000 0.00000000 15.99999363 0.00000000 0.00000000 0.00000000 25.59259781
15.99999363 0.00000000 0.00000000 0.00000000 15.99999363 0.00000000 0.00000000 0.00000000 25.57299781
15.99999363 0.00000000 0.00000000 0.00000000 15.99999363 0.00000000 0.00000000 0.00000000 25.61898179
15.99999363 0.00000000 0.00000000 0.00000000 15.99999363 0.00000000 0.00000000 0.00000000 25.60139780
15.99999363 0.00000000 0.00000000 0.00000000 15.99999363 0.00000000 0.00000000 0.00000000 25.56749382
15.99999363 0.00000000 0.00000000 0.00000000 15.99999363 0.00000000 0.00000000 0.00000000 25.58349381
15.99999363 0.00000000 0.00000000 0.00000000 15.99999363 0.00000000 0.00000000 0.00000000 25.66509378
15.99999363 0.00000000 0.00000000 0.00000000 15.99999363 0.00000000 0.00000000 0.00000000 25.65088578
15.99999363 0.00000000 0.00000000 0.00000000 15.99999363 0.00000000 0.00000000 0.00000000 25.62349379
15.99999363 0.00000000 0.00000000 0.00000000 15.99999363 0.00000000 0.00000000 0.00000000 25.56549382
15.99999363 0.00000000 0.00000000 0.00000000 15.99999363 0.00000000 0.00000000 0.00000000 25.60478980
15.99999363 0.00000000 0.00000000 0.00000000 15.99999363 0.00000000 0.00000000 0.00000000 25.66608578
15.99999363 0.00000000 0.00000000 0.00000000 15.99999363 0.00000000 0.00000000 0.00000000 25.61589380
15.99999363 0.00000000 0.00000000 0.00000000 15.99999363 0.00000000 0.00000000 0.00000000 25.56048582
15.99999363 0.00000000 0.00000000 0.00000000 15.99999363 0.00000000 0.00000000 0.00000000 25.67128577
15.99999363 0.00000000 0.00000000 0.00000000 15.99999363 0.00000000 0.00000000 0.00000000 25.60448580
15.99999363 0.00000000 0.00000000 0.00000000 15.99999363 0.00000000 0.00000000 0.00000000 25.67038977
15.99999363 0.00000000 0.00000000 0.00000000 15.99999363 0.00000000 0.00000000 0.00000000 25.66429378
15.99999363 0.00000000 0.00000000 0.00000000 15.99999363 0.00000000 0.00000000 0.00000000 25.65109378
15.99999363 0.00000000 0.00000000 0.00000000 15.99999363 0.00000000 0.00000000 0.00000000 25.58918981
15.99999363 0.00000000 0.00000000 0.00000000 15.99999363 0.00000000 0.00000000 0.00000000 25.56829381
15.99999363 0.00000000 0.00000000 0.00000000 15.99999363 0.00000000 0.00000000 0.00000000 25.55058182
15.99999363 0.00000000 0.00000000 0.00000000 15.99999363 0.00000000 0.00000000 0.00000000 25.55658182
15.99999363 0.00000000 0.00000000 0.00000000 15.99999363 0.00000000 0.00000000 0.00000000 25.61658180
15.99999363 0.00000000 0.00000000 0.00000000 15.99999363 0.00000000 0.00000000 0.00000000 25.63608579
15.99999363 0.00000000 0.00000000 0.00000000 15.99999363 0.00000000 0.00000000 0.00000000 25.66318978
15.99999363 0.00000000 0.00000000 0.00000000 15.99999363 0.00000000 0.00000000 0.00000000 25.65909378
15.99999363 0.00000000 0.00000000 0.00000000 15.99999363 0.00000000 0.00000000 0.00000000 25.54528582
15.99999363 0.00000000 0.00000000 0.00000000 15.99999363 0.00000000 0.00000000 0.00000000 25.53888583
15.99999363 0.00000000 0.00000000 0.00000000 15.99999363 0.00000000 0.00000000 0.00000000 25.64718978
15.99999363 0.00000000 0.00000000 0.00000000 15.99999363 0.00000000 0.00000000 0.00000000 25.54048583
15.99999363 0.00000000 0.00000000 0.00000000 15.99999363 0.00000000 0.00000000 0.00000000 25.55838982
15.99999363 0.00000000 0.00000000 0.00000000 15.99999363 0.00000000 0.00000000 0.00000000 25.61269380
15.99999363 0.00000000 0.00000000 0.00000000 15.99999363 0.00000000 0.00000000 0.00000000 25.63059779
15.99999363 0.00000000 0.00000000 0.00000000 15.99999363 0.00000000 0.00000000 0.00000000 25.64549378
15.99999363 0.00000000 0.00000000 0.00000000 15.99999363 0.00000000 0.00000000 0.00000000 25.65728578
15.99999363 0.00000000 0.00000000 0.00000000 15.99999363 0.00000000 0.00000000 0.00000000 25.57739781
15.99999363 0.00000000 0.00000000 0.00000000 15.99999363 0.00000000 0.00000000 0.00000000 25.56048582
15.99999363 0.00000000 0.00000000 0.00000000 15.99999363 0.00000000 0.00000000 0.00000000 25.54749382
15.99999363 0.00000000 0.00000000 0.00000000 15.99999363 0.00000000 0.00000000 0.00000000 25.56979781
15.99999363 0.00000000 0.00000000 0.00000000 15.99999363 0.00000000 0.00000000 0.00000000 25.65269378
15.99999363 0.00000000 0.00000000 0.00000000 15.99999363 0.00000000 0.00000000 0.00000000 25.65688578
15.99999363 0.00000000 0.00000000 0.00000000 15.99999363 0.00000000 0.00000000 0.00000000 25.54518982
15.99999363 0.00000000 0.00000000 0.00000000 15.99999363 0.00000000 0.00000000 0.00000000 25.57118981
15.99999363 0.00000000 0.00000000 0.00000000 15.99999363 0.00000000 0.00000000 0.00000000 25.58928581
15.99999363 0.00000000 0.00000000 0.00000000 15.99999363 0.00000000 0.00000000 0.00000000 25.60939780
15.99999363 0.00000000 0.00000000 0.00000000 15.99999363 0.00000000 0.00000000 0.00000000 25.60598980
15.99999363 0.00000000 0.00000000 0.00000000 15.99999363 0.00000000 0.00000000 0.00000000 25.60398980
15.99999363 0.00000000 0.00000000 0.00000000 15.99999363 0.00000000 0.00000000 0.00000000 25.58118981
15.99999363 0.00000000 0.00000000 0.00000000 15.99999363 0.00000000 0.00000000 0.00000000 25.61949379
15.99999363 0.00000000 0.00000000 0.00000000 15.99999363 0.00000000 0.00000000 0.00000000 25.60858180
15.99999363 0.00000000 0.00000000 0.00000000 15.99999363 0.00000000 0.00000000 0.00000000 25.63128579
15.99999363 0.00000000 0.00000000 0.00000000 15.99999363 0.00000000 0.00000000 0.00000000 25.56168582
15.99999363 0.00000000 0.00000000 0.00000000 15.99999363 0.00000000 0.00000000 0.00000000 25.55149382
15.99999363 0.00000000 0.00000000 0.00000000 15.99999363 0.00000000 0.00000000 0.00000000 25.57888581
15.99999363 0.00000000 0.00000000 0.00000000 15.99999363 0.00000000 0.00000000 0.00000000 25.59458180
15.99999363 0.00000000 0.00000000 0.00000000 15.99999363 0.00000000 0.00000000 0.00000000 25.64958978
15.99999363 0.00000000 0.00000000 0.00000000 15.99999363 0.00000000 0.00000000 0.00000000 25.57469381
15.99999363 0.00000000 0.00000000 0.00000000 15.99999363 0.00000000 0.00000000 0.00000000 25.57568581
15.99999363 0.00000000 0.00000000 0.00000000 15.99999363 0.00000000 0.00000000 0.00000000 25.58629381
15.99999363 0.00000000 0.00000000 0.00000000 15.99999363 0.00000000 0.00000000 0.00000000 25.57349381
15.99999363 0.00000000 0.00000000 0.00000000 15.99999363 0.00000000 0.00000000 0.00000000 25.67768577
15.99999363 0.00000000 0.00000000 0.00000000 15.99999363 0.00000000 0.00000000 0.00000000 25.63898179
15.99999363 0.00000000 0.00000000 0.00000000 15.99999363 0.00000000 0.00000000 0.00000000 25.58768581
15.99999363 0.00000000 0.00000000 0.00000000 15.99999363 0.00000000 0.00000000 0.00000000 25.56258182
15.99999363 0.00000000 0.00000000 0.00000000 15.99999363 0.00000000 0.00000000 0.00000000 25.52878983
15.99999363 0.00000000 0.00000000 0.00000000 15.99999363 0.00000000 0.00000000 0.00000000 25.60549380
15.99999363 0.00000000 0.00000000 0.00000000 15.99999363 0.00000000 0.00000000 0.00000000 25.57739781
15.99999363 0.00000000 0.00000000 0.00000000 15.99999363 0.00000000 0.00000000 0.00000000 25.63938179
15.99999363 0.00000000 0.00000000 0.00000000 15.99999363 0.00000000 0.00000000 0.00000000 25.55109382
15.99999363 0.00000000 0.00000000 0.00000000 15.99999363 0.00000000 0.00000000 0.00000000 25.53728583
15.99999363 0.00000000 0.00000000 0.00000000 15.99999363 0.00000000 0.00000000 0.00000000 25.62509379
15.99999363 0.00000000 0.00000000 0.00000000 15.99999363 0.00000000 0.00000000 0.00000000 25.65318978
15.99999363 0.00000000 0.00000000 0.00000000 15.99999363 0.00000000 0.00000000 0.00000000 25.55019782
15.99999363 0.00000000 0.00000000 0.00000000 15.99999363 0.00000000 0.00000000 0.00000000 25.63688579
15.99999363 0.00000000 0.00000000 0.00000000 15.99999363 0.00000000 0.00000000 0.00000000 25.63379779
15.99999363 0.00000000 0.00000000 0.00000000 15.99999363 0.00000000 0.00000000 0.00000000 25.60958980
15.99999363 0.00000000 0.00000000 0.00000000 15.99999363 0.00000000 0.00000000 0.00000000 25.63728579
15.99999363 0.00000000 0.00000000 0.00000000 15.99999363 0.00000000 0.00000000 0.00000000 25.62058179
15.99999363 0.00000000 0.00000000 0.00000000 15.99999363 0.00000000 0.00000000 0.00000000 25.55118982
15.99999363 0.00000000 0.00000000 0.00000000 15.99999363 0.00000000 0.00000000 0.00000000 25.62058179
15.99999363 0.00000000 0.00000000 0.00000000 15.99999363 0.00000000 0.00000000 0.00000000 25.62389379
15.99999363 0.00000000 0.00000000 0.00000000 15.99999363 0.00000000 0.00000000 0.00000000 25.51349384
15.99999363 0.00000000 0.00000000 0.00000000 15.99999363 0.00000000 0.00000000 0.00000000 25.64688578
15.99999363 0.00000000 0.00000000 0.00000000 15.99999363 0.00000000 0.00000000 0.00000000 25.62019779
15.99999363 0.00000000 0.00000000 0.00000000 15.99999363 0.00000000 0.00000000 0.00000000 25.63029379
15.99999363 0.00000000 0.00000000 0.00000000 15.99999363 0.00000000 0.00000000 0.00000000 25.61658180
15.99999363 0.00000000 0.00000000 0.00000000 15.99999363 0.00000000 0.00000000 0.00000000 25.62869379
15.99999363 0.00000000 0.00000000 0.00000000 15.99999363 0.00000000 0.00000000 0.00000000 25.63829379
15.99999363 0.00000000 0.00000000 0.00000000 15.99999363 0.00000000 0.00000000 0.00000000 25.63238979
15.99999363 0.00000000 0.00000000 0.00000000 15.99999363 0.00000000 0.00000000 0.00000000 25.60349380
15.99999363 0.00000000 0.00000000 0.00000000 15.99999363 0.00000000 0.00000000 0.00000000 25.53669383
15.99999363 0.00000000 0.00000000 0.00000000 15.99999363 0.00000000 0.00000000 0.00000000 25.52888583
15.99999363 0.00000000 0.00000000 0.00000000 15.99999363 0.00000000 0.00000000 0.00000000 25.52709383
15.99999363 0.00000000 0.00000000 0.00000000 15.99999363 0.00000000 0.00000000 0.00000000 25.53128583
15.99999363 0.00000000 0.00000000 0.00000000 15.99999363 0.00000000 0.00000000 0.00000000 25.64109379
15.99999363 0.00000000 0.00000000 0.00000000 15.99999363 0.00000000 0.00000000 0.00000000 25.53109383
15.99999363 0.00000000 0.00000000 0.00000000 15.99999363 0.00000000 0.00000000 0.00000000 25.58078981
15.99999363 0.00000000 0.00000000 0.00000000 15.99999363 0.00000000 0.00000000 0.00000000 25.53848583
15.99999363 0.00000000 0.00000000 0.00000000 15.99999363 0.00000000 0.00000000 0.00000000 25.62038979
15.99999363 0.00000000 0.00000000 0.00000000 15.99999363 0.00000000 0.00000000 0.00000000 25.66008578
15.99999363 0.00000000 0.00000000 0.00000000 15.99999363 0.00000000 0.00000000 0.00000000 25.48299785
15.99999363 0.00000000 0.00000000 0.00000000 15.99999363 0.00000000 0.00000000 0.00000000 25.58078981
15.99999363 0.00000000 0.00000000 0.00000000 15.99999363 0.00000000 0.00000000 0.00000000 25.58608581
15.99999363 0.00000000 0.00000000 0.00000000 15.99999363 0.00000000 0.00000000 0.00000000 25.63128579
15.99999363 0.00000000 0.00000000 0.00000000 15.99999363 0.00000000 0.00000000 0.00000000 25.57808581
15.99999363 0.00000000 0.00000000 0.00000000 15.99999363 0.00000000 0.00000000 0.00000000 25.53118983
15.99999363 0.00000000 0.00000000 0.00000000 15.99999363 0.00000000 0.00000000 0.00000000 25.62118979
15.99999363 0.00000000 0.00000000 0.00000000 15.99999363 0.00000000 0.00000000 0.00000000 25.58558981
15.99999363 0.00000000 0.00000000 0.00000000 15.99999363 0.00000000 0.00000000 0.00000000 25.59958980
15.99999363 0.00000000 0.00000000 0.00000000 15.99999363 0.00000000 0.00000000 0.00000000 25.59958980
15.99999363 0.00000000 0.00000000 0.00000000 15.99999363 0.00000000 0.00000000 0.00000000 25.54029383
15.99999363 0.00000000 0.00000000 0.00000000 15.99999363 0.00000000 0.00000000 0.00000000 25.63278979
15.99999363 0.00000000 0.00000000 0.00000000 15.99999363 0.00000000 0.00000000 0.00000000 25.64338178
15.99999363 0.00000000 0.00000000 0.00000000 15.99999363 0.00000000 0.00000000 0.00000000 25.56699782
15.99999363 0.00000000 0.00000000 0.00000000 15.99999363 0.00000000 0.00000000 0.00000000 25.50269384
15.99999363 0.00000000 0.00000000 0.00000000 15.99999363 0.00000000 0.00000000 0.00000000 25.54208583
15.99999363 0.00000000 0.00000000 0.00000000 15.99999363 0.00000000 0.00000000 0.00000000 25.55798982
15.99999363 0.00000000 0.00000000 0.00000000 15.99999363 0.00000000 0.00000000 0.00000000 25.56618182
15.99999363 0.00000000 0.00000000 0.00000000 15.99999363 0.00000000 0.00000000 0.00000000 25.56738182
15.99999363 0.00000000 0.00000000 0.00000000 15.99999363 0.00000000 0.00000000 0.00000000 25.59978180
15.99999363 0.00000000 0.00000000 0.00000000 15.99999363 0.00000000 0.00000000 0.00000000 25.52309383
15.99999363 0.00000000 0.00000000 0.00000000 15.99999363 0.00000000 0.00000000 0.00000000 25.56598982
15.99999363 0.00000000 0.00000000 0.00000000 15.99999363 0.00000000 0.00000000 0.00000000 25.61059780
15.99999363 0.00000000 0.00000000 0.00000000 15.99999363 0.00000000 0.00000000 0.00000000 25.62629379
15.99999363 0.00000000 0.00000000 0.00000000 15.99999363 0.00000000 0.00000000 0.00000000 25.61909379
15.99999363 0.00000000 0.00000000 0.00000000 15.99999363 0.00000000 0.00000000 0.00000000 25.64758978
15.99999363 0.00000000 0.00000000 0.00000000 15.99999363 0.00000000 0.00000000 0.00000000 25.58539781
15.99999363 0.00000000 0.00000000 0.00000000 15.99999363 0.00000000 0.00000000 0.00000000 25.63958979
15.99999363 0.00000000 0.00000000 0.00000000 15.99999363 0.00000000 0.00000000 0.00000000 25.54189383
15.99999363 0.00000000 0.00000000 0.00000000 15.99999363 0.00000000 0.00000000 0.00000000 25.59218181
15.99999363 0.00000000 0.00000000 0.00000000 15.99999363 0.00000000 0.00000000 0.00000000 25.64098179
15.99999363 0.00000000 0.00000000 0.00000000 15.99999363 0.00000000 0.00000000 0.00000000 25.54509382
15.99999363 0.00000000 0.00000000 0.00000000 15.99999363 0.00000000 0.00000000 0.00000000 25.61078980
15.99999363 0.00000000 0.00000000 0.00000000 15.99999363 0.00000000 0.00000000 0.00000000 25.53208583
15.99999363 0.00000000 0.00000000 0.00000000 15.99999363 0.00000000 0.00000000 0.00000000 25.58848581
15.99999363 0.00000000 0.00000000 0.00000000 15.99999363 0.00000000 0.00000000 0.00000000 25.53048583
15.99999363 0.00000000 0.00000000 0.00000000 15.99999363 0.00000000 0.00000000 0.00000000 25.62949379
15.99999363 0.00000000 0.00000000 0.00000000 15.99999363 0.00000000 0.00000000 0.00000000 25.61979779
15.99999363 0.00000000 0.00000000 0.00000000 15.99999363 0.00000000 0.00000000 0.00000000 25.60378180
15.99999363 0.00000000 0.00000000 0.00000000 15.99999363 0.00000000 0.00000000 0.00000000 25.54158983
15.99999363 0.00000000 0.00000000 0.00000000 15.99999363 0.00000000 0.00000000 0.00000000 25.60168580
15.99999363 0.00000000 0.00000000 0.00000000 15.99999363 0.00000000 0.00000000 0.00000000 25.57709381
15.99999363 0.00000000 0.00000000 0.00000000 15.99999363 0.00000000 0.00000000 0.00000000 25.56488582