-54371.41189958
-54371.82087883
-54371.51939752
-54372.44606297
-54371.45399357
-54371.28309362
-54372.09010934
-54371.75549135
-54370.99989673
-54371.42977025
-54371.69764822
-54372.80699656
-54372.42327071
-54371.90304228
-54373.45544685
-54372.63505428
-54371.32983817
-54372.40128009
-54373.36309138
-54372.41165648
-54372.05049200
-54372.56614346
-54371.40741065
-54374.57195983
-54372.22939128
-54371.41167250
-54370.61065294
-54374.60517746
-54373.53763425
-54372.04138298
-54372.65324619
-54371.43744251
-54373.05294514
-54372.88876286
-54370.61769389
-54371.75410343
-54373.41056343
-54372.49725292
-54371.84079540
-54372.95989944
-54371.93327034
-54372.61323224
-54371.46938460
-54373.02132182
-54373.89480777
-54372.55860414
-54372.31741321
-54372.98963428
-54373.00185873
-54372.60571060
-54371.20394029
-54372.10614134
-54373.53191822
-54372.28852314
-54370.41624684
-54373.67138085
-54371.53233082
-54372.77276748
-54373.25355136
-54371.21672938
-54374.92162150
-54372.13440255
-54373.30836041
-54372.43547379
-54374.77824561
-54373.37985673
-54371.05107497
-54373.06756065
-54372.65306265
-54371.80751545
-54371.90434068
-54372.77072350
-54373.55135260
-54371.89115689
-54372.58529253
-54372.65849445
-54371.86951920
-54371.99502551
-54373.00589459
-54371.65531082
-54372.30685410
-54373.11989782
-54372.83006693
-54372.31811417
-54372.61360803
-54373.96988973
-54372.03586111
-54371.79089650
-54372.32877519
-54373.10915381
-54374.10229984
-54372.70944602
-54373.81309304
-54371.60216275
-54373.31966770
-54371.82158279
-54373.62189448
-54371.96563802
-54373.78861802
-54372.74400871
-54372.03589295
-54375.15418806
-54375.68217867
-54373.93757062
-54373.13778034
-54372.86259448
-54372.46405352
-54372.85467964
-54372.59275240
-54372.67208464
-54372.80673030
-54373.95986804
-54373.01793659
-54372.91484703
-54373.36348676
-54372.20701331
-54370.15160689
-54371.15872842
-54371.82004739
-54368.88252330
-54368.85639369
-54368.42776862
-54369.55353755
-54371.86499232
-54370.16973853
-54369.96007214
-54370.23398817
-54371.99296384
-54370.46080604
-54371.06998172
-54368.41308454
-54369.48362032
-54370.44129602
-54370.02198323
-54369.71145821
-54369.71798405
-54370.68532605
-54367.92046684
-54368.90811099
-54371.46441022
-54370.36390966
-54366.63112123
-54367.74928076
-54367.57490605
-54366.94110175
-54367.02284996
-54368.65962713
-54367.77349537
-54366.55630921
-54369.20240619
-54366.00901184
-54370.01539358
-54367.67794568
-54366.62227099
-54367.41911741
-54368.16200322
-54367.67621068
-54368.56529529
-54366.57888827
-54367.77091287
-54366.03793864
-54370.36000592
-54367.62797834
-54367.60662039
-54366.03117375
-54368.35721954
-54369.26166227
-54366.92056694
-54368.57249148
-54368.38802243
-54366.84758163
-54368.40428328
-54366.87075635
-54368.95513188
-54368.28296495
-54367.34113893
-54369.32736214
-54366.82051894
-54365.94927371
-54368.69937890
-54368.87661979
-54367.28792555
-54366.11538758
-54368.04888367
-54368.14290776
-54369.39951533
-54365.88013159
-54369.49566122
-54366.34732950
-54367.54799888
-54368.19658822
-54375.72991888
-54374.65593569
-54372.76575987
-54372.70131730
-54371.86524389
-54370.26060881
-54372.97204606
-54372.74813573
-54370.41633623
-54369.60582588
-54370.89094896
-54370.81627586
-54370.36310012
-54370.81655858
-54372.03589295
-54371.52249445
-54369.05205356
-54370.28442762
-54369.58842270
-54368.81627158
-54371.27929844
-54370.27757879
-54366.21685398
-54367.43142608
-54367.98209834
-54369.43984725
-54368.03407891
-54367.38323279
-54366.71104164
-54367.83379636
-54366.61768791
-54368.12890436
-54366.83760729
-54366.75811967
-54367.43248569
-54374.34775615
-54374.88253900
-54376.11661160
-54373.19517611
-54372.83548186
-54370.52266952
-54373.92031152
-54372.91608324
-54372.45307100
-54373.23394568
-54372.17310369
-54371.71306728
-54367.99431285
-54370.79121131
-54371.10814053
-54370.46087652
-54369.98759565
-54369.86462735
-54369.44885871
-54368.67588785
-54371.20589380
-54368.94293600
-54369.29931454
-54371.16509521
-54368.63506164
-54371.28397377
-54369.51173255
-54368.72099808
-54368.36237583
-54368.45202350
-54368.79819872
-54370.52922189
-54370.00376752
-54369.73167913
-54368.75344332
-54368.24084511
-54371.01456013
-54369.60295889
-54369.28503944
-54366.48549563
-54367.92536312
-54367.35369182
-54367.78176913
-54367.41675056
-54366.52160325
-54366.40813771
-54369.62067623
-54367.02035834
-54367.87371521
-54365.44650834
-54367.17583215
-54368.43470644
-54365.52262378
-54367.80783764
-54366.05830719
-54368.34190714
-54367.03799038
-54368.12098190
-54367.54797344
-54367.58156604
-54366.66232957
-54366.93391794
-54367.80289742
-54366.99368886
-54367.45497332
-54366.45838709
-54367.00518064
-54365.56465450
-54368.71508886
-54368.34643172
-54368.54287963
-54367.94675209
-54367.54569680
-54367.10630567
-54364.45101043
-54367.32493292
-54369.19953511
-54366.47544456
-54367.40593934
-54369.59545943
-54367.38078335
-54368.24289671
-54367.77445987
-54367.34358061
-54368.06805900
-54367.82273534
-54367.31192832
-54367.11404677
-54367.42505888
-54368.14413812
-54368.26688328
-54369.34036688
-54368.55948362
-54372.14188120
-54372.77129698
-54371.39485640
-54373.11145794
-54372.53643542
-54369.46790342
-54370.28027054
-54369.95150776
-54370.17411208
-54369.49144618
-54369.66072691
-54369.74719521
-54369.09840790
-54368.31343967
-54369.66940014
-54367.27445183
-54367.21009089
-54367.98838988
-54366.71760911
-54366.19953053
-54366.44895440
-54366.77117515
-54369.14124490
-54367.22966759
-54365.88990171
-54368.22315648
-54368.50263969
-54366.80261683
-54366.40000287
-54367.15571300
-54368.18022165
-54367.75966109
-54368.01582237
-54367.20606905
-54366.84701073
-54366.65553380
-54367.74913491
-54368.34058943
-54368.25651112
-54369.13899098
-54367.37545251
-54374.89506454
-54374.71419815
-54371.75536032
-54373.14282288
-54372.44442117
-54373.77767863
-54371.58507685
-54370.78047995
-54370.46500340
-54369.88114099
-54370.03899811
-54368.54674392
-54370.12761161
-54370.73041642
-54370.40518527
-54369.89596712
-54369.91530680
-54369.36606096
-54369.31223097
-54365.96248049
-54367.14430081
-54366.64472815
-54369.11217252
-54367.84716818
-54366.61463752
-54367.99850885
-54367.44182151
-54367.30527880
-54367.49800637
-54366.40359654
-54366.28399143
-54367.23022937
-54367.10566281
-54366.97324168
-54366.67013597
-54368.61560522
-54368.26622586
-54366.39258531
-54368.74876704
-54368.10655986
-54367.11648287
-54367.20454739
-54372.30715982
-54377.66183563
-54378.05931331
-54374.21108175
-54374.34552972
-54372.10608869
-54370.93739120
-54371.66272770
-54373.58476004
-54373.21741068
-54369.73448463
-54368.44217025
-54368.49788287
-54370.46140796
-54369.53677220
-54369.12899324
-54370.33512069
-54369.96657117
-54370.02043245
-54367.20792568
-54370.38600083
-54366.84006679
-54368.44005634
-54367.71085990
-54367.11290471
-54368.45720877
-54366.68848040
-54366.03265759
-54368.01663722
-54368.94390513
-54366.72379943
-54369.00654794
-54367.09965847
-54366.22367166
-54367.87670874
-54366.18408833
-54367.87825774
-54366.09592586
-54368.01216053
-54367.44738760
-54367.53595008
-54368.15916126
-54368.36154044
-54367.54448711
-54367.59021165
-54369.77383884
-54367.00403940
-54366.84353066
-54367.31825265
-54366.33131042
-54366.29831973
-54368.61808458
-54367.44742923
-54366.89959471
-54367.61154116
-54373.36331900
-54374.25999450
-54376.04246109
-54375.13582717
-54374.96401332
-54373.46582691
-54372.87060837
-54372.52275843
-54373.68958187
-54372.43047506
-54372.41204437
-54371.96416425
-54368.56290368
-54370.68594728
-54368.51993757
-54371.20280218
-54369.72296931
-54368.68858986
-54370.59563116
-54370.18816949
-54367.37445970
-54368.19274883
-54367.18320916
-54366.82307368
-54367.72705681
-54368.97448380
-54366.16115144
-54367.69092429
-54366.96130785
-54366.62608807
-54366.67705053
-54366.38312718
-54367.16373601
-54368.22401880
-54367.07197006
-54369.14405284
-54367.44109184
-54368.67171131
-54377.09768991
-54373.38756966
-54371.40930361
-54368.08295085
-54368.99444241
-54370.75546451
-54370.30653158
-54370.26212258
-54370.69866888
-54369.78351616
-54369.72043620
-54368.41254303
-54370.44548698
-54369.50664374
-54371.62678090
-54367.16933625
-54368.82354260
-54367.47988903
-54367.85107057
-54367.70493516
-54365.72395832
-54365.86698427
-54366.71997283
-54367.42216930
-54367.16125528
-54370.08339826
-54367.97268972
-54368.49593834
-54369.06292506
-54366.50138056
-54367.13007075
-54368.30480754
-54367.41250667
-54366.63274316
-54368.89371235
-54367.87008018
-54365.97726879
-54367.83742187
-54366.81894898
-54367.57107523
