   -27.42959730      6.52885624     31.33610962      6.52885624    -74.42176015      3.64847849     31.33610962      3.64847849    -13.44776363 
   -84.62909881     -8.10706321     -3.83450288     -8.10706321    -43.27767572     10.59138902     -3.83450288     10.59138902    -20.39067417 
   -43.39169067     23.78711960    -35.24262195     23.78711960    -74.60178376     -4.56659889    -35.24262195     -4.56659889    -15.45202648 
   -50.27459334     -2.68235178     13.48376835     -2.68235178    -55.44727172    -15.70405953     13.48376835    -15.70405953    -16.68218781 
   -66.24268750      3.67248163     25.85739111      3.67248163    -59.55781080      4.61460519     25.85739111      4.61460519    -23.66710386 
   -25.51534625     -5.89877360    -11.29948189     -5.89877360    -35.46465106      9.19320566    -11.29948189      9.19320566     -4.61460519 
   -74.36175228     -4.10453830    -13.63978881     -4.10453830    -39.51518228     -8.59312696    -13.63978881     -8.59312696    -15.05597454 
   -48.60637456     11.94756688     18.63244358     11.94756688    -69.11706446     -5.32269805     18.63244358     -5.32269805    -29.16982552 
   -46.65611879     -3.32443599      6.49885230     -3.32443599    -14.58791315      6.53485702      6.49885230      6.53485702    -11.20346930 
   -51.02469171      0.51606768    -29.87791838      0.51606768    -84.05902405     15.01996982    -29.87791838     15.01996982    -20.31866472 
   -85.69123811      1.13414874     -5.19068074      1.13414874    -53.59302854    -12.71566762     -5.19068074    -12.71566762    -32.31423790 
   -36.68281082      5.59873425     21.56082763      5.59873425    -51.82879717    -13.60378409     21.56082763    -13.60378409     -4.31456584 
   -52.63890341     -7.27295382     -4.10453830     -7.27295382    -52.53088924      6.42084207     -4.10453830      6.42084207    -18.57243571 
   -64.10640733      3.52246196    -35.01459204      3.52246196    -58.59768488     18.87847585    -35.01459204     18.87847585    -32.77629850 
   -43.85375127     -4.08653593     14.71392968     -4.08653593    -56.97147161    -19.48455533     14.71392968    -19.48455533     -8.16107030 
   -52.44087744     12.49363850     20.61870407     12.49363850    -45.11391653    -14.18586043     20.61870407    -14.18586043    -11.92956452 
   -82.43281077     -6.06679564    -13.81381163     -6.06679564    -92.37611480     17.26426415    -13.81381163     17.26426415    -25.87539347 
   -29.17582631     -0.13201731    -19.38854274     -0.13201731    -33.89244488      0.79810467    -19.38854274      0.79810467     -9.91930088 
   -50.32259963     11.09545513     15.09798005     11.09545513    -34.97258653    -21.00875522     15.09798005    -21.00875522     -9.16320172 
   -76.39601907    -10.19533708     12.34361882    -10.19533708    -96.28262713     -2.29830141     12.34361882     -2.29830141    -30.12395065 
   -42.74360567     15.78807055    -18.51242784     15.78807055    -32.23022688     13.90982422    -18.51242784     13.90982422    -12.86568729 
   -23.74511409    -11.06545120    -10.23134180    -11.06545120    -33.86244094      3.61247376    -10.23134180      3.61247376     -6.77488850 
   -92.04607152     -0.89411726     16.41215240     -0.89411726    -73.78567673    -20.89474027     16.41215240    -20.89474027    -18.25439400 
   -65.92464579      6.33083027      9.54125130      6.33083027    -89.77177325      2.89237933      9.54125130      2.89237933    -27.96966812 
   -33.28636539    -16.58617522     -9.93130246    -16.58617522    -21.11676939     19.90461042     -9.93130246     19.90461042     -5.56272953 
   -68.29495664     21.42280953      5.46671694     21.42280953    -84.96514288     -6.39083814      5.46671694     -6.39083814     -8.71314270 
   -57.28351253    -19.74858996      2.55633525    -19.74858996    -45.52797083    -28.28770983      2.55633525    -28.28770983     -9.17520330 
   -41.11139161      3.02439664     -6.78689008      3.02439664    -31.73816235      2.46032266     -6.78689008      2.46032266      6.64287119 
   -45.66598893     -4.51859260     -3.24042497     -4.51859260    -45.87601648     20.23465370     -3.24042497     20.23465370    -11.40749605 
   -74.43976251      1.19415661      1.74022822      1.19415661    -64.74249075     -3.18641789      1.74022822     -3.18641789    -26.49947531 
   -29.70389556     10.38736227     -1.72822665     10.38736227    -69.63913293    -26.05541708     -1.72822665    -26.05541708     -9.53525051 
   -52.50088531     -7.05092470     -7.50098373     -7.05092470    -41.96950415     23.19304169     -7.50098373     23.19304169    -12.55364637 
   -55.15323315      5.00465634      6.55886017      5.00465634    -78.22625910     23.15103618      6.55886017     23.15103618    -11.39549448 
   -38.19500914     -0.75009837      2.66434942     -0.75009837    -20.28266000    -18.03836567      2.66434942    -18.03836567    -10.37536069 
   -46.17005504      3.26442812     -3.34243835      3.26442812    -51.04869486    -16.41215240     -3.34243835    -16.41215240    -14.80994227 
   -90.72589838     -6.61886804     -4.53059417     -6.61886804    -85.99127745     20.67871194     -4.53059417     20.67871194    -25.75537773 
   -25.04728486     11.34748818      3.82250131     11.34748818    -48.01829743     10.74740949      3.82250131     10.74740949      1.14014953 
   -45.25793542     -5.82676416      3.01839585     -5.82676416    -31.40211828    -30.90405296      3.01839585    -30.90405296     -4.13454223 
   -64.68248288      1.96825813     -4.52459338      1.96825813    -68.92503928     -9.06718913     -4.52459338     -9.06718913    -23.01301808 
   -40.42130111      2.70035414     -6.62486883      2.70035414    -51.81079480     27.66962877     -6.62486883     27.66962877    -10.17133393 
   -76.19799310    -13.41175891     11.94756688    -13.41175891    -56.79744879      3.29443205     11.94756688      3.29443205    -13.53777543 
   -61.07000912     -0.22802991      5.64073976     -0.22802991    -78.66431655    -33.67641654      5.64073976    -33.67641654    -14.58191237 
   -74.25973890      3.18641789     -5.35870278      3.18641789    -41.19540263     -8.25708289     -5.35870278     -8.25708289    -17.11424447 
   -41.13539476     -5.11867130      4.18254853     -5.11867130    -73.48563738     20.10263639      4.18254853     20.10263639     -8.57512460 
   -75.41189001     -3.61847455      4.48858866     -3.61847455    -45.97802986      1.15815189      4.48858866      1.15815189     -8.59312696 
   -29.19382867     -6.45084601     -4.72862014     -6.45084601    -57.48753929    -21.08676546     -4.72862014    -21.08676546    -11.19146772 
   -69.72914473      5.10666972      2.95838798      5.10666972    -71.93143356     -5.87477046      2.95838798     -5.87477046    -13.53777543 
   -51.05469564     -1.11614638      3.76849422     -1.11614638    -30.59201204     21.70484651      3.76849422     21.70484651     -8.23307974 
   -35.28462746      5.43671301      0.34804564      5.43671301    -59.46179821      2.63434549      0.34804564      2.63434549    -15.52403592 
   -69.72914473      3.07240293     -7.99304826      3.07240293    -51.90680740    -27.67562956     -7.99304826    -27.67562956    -11.41949763 
   -33.30436775     -6.63687040     -3.93051547     -6.63687040    -46.93215499     -0.72609522     -3.93051547     -0.72609522     -4.21255246 
   -68.91303770     10.72940712      1.89024790     10.72940712    -76.19199231     27.33958549      1.89024790     27.33958549    -18.92648214 
   -54.14510094     -3.67848242      6.04879328     -3.67848242    -30.79603879     -4.68061385      6.04879328     -4.68061385    -18.85447270 
   -19.10650575      3.07840372     -7.99904905      3.07840372    -52.18284360    -25.09529116     -7.99904905    -25.09529116    -16.22612800 
   -97.68081050     -9.95530560      0.53407004     -9.95530560    -55.11722843     17.10824369      0.53407004     17.10824369    -19.82660019 
   -34.17448186      6.46884837      3.96652020      6.46884837    -67.41884174     23.43307317      3.96652020     23.43307317    -16.46015869 
   -38.01498553     -1.55420383      0.73209601     -1.55420383    -29.48786723    -18.37440974      0.73209601    -18.37440974    -14.46789741 
   -65.75662375     -0.07200944    -17.74432711     -0.07200944    -63.81836956    -15.79407134    -17.74432711    -15.79407134    -11.09545513 
   -43.97376701      1.83624082      6.37283578      1.83624082    -55.66930083     19.16651362      6.37283578     19.16651362     -1.18215504 
   -74.00170506     -3.97852177     14.36588404     -3.97852177    -45.44996060      6.26482161     14.36588404      6.26482161    -18.32040266 
   -41.74147425      4.19455010    -10.54938351      4.19455010    -82.18077772    -23.07902673    -10.54938351    -23.07902673    -16.95222322 
   -54.57715760     -9.66126704     -9.72727570     -9.66126704    -16.61617915     -6.94291054     -9.72727570     -6.94291054     -2.97639034 
   -22.87499998      0.48006296     12.89569122      0.48006296    -60.58394537     22.55095748     12.89569122     22.55095748    -13.20773215 
   -81.54469430      1.75823059      9.57725602      1.75823059    -50.34060199     -0.78610309      9.57725602     -0.78610309     -5.85676809 
   -24.44720617     -2.30430220    -17.20425628     -2.30430220    -56.85145587    -26.30745013    -17.20425628    -26.30745013    -10.98744096 
   -65.01852695      0.88211569     -8.45510886      0.88211569    -42.71360174      3.08440451     -8.45510886      3.08440451    -11.11345749 
   -68.25895192     -4.35657135     16.08810990     -4.35657135    -71.04331708     18.08037118     16.08810990     18.08037118    -17.99035937 
   -54.25311511     -2.23829354     -1.64421563     -2.23829354    -48.99042492     -2.85637460     -1.64421563     -2.85637460    -11.56351651 
   -54.96720876      1.32017314    -14.77393755      1.32017314    -33.92844960    -18.48242391    -14.77393755    -18.48242391    -16.49616341 
   -68.01892044      9.64926547     -0.97812828      9.64926547    -78.76632993      4.99265477     -0.97812828      4.99265477     -9.37322927 
   -64.77849547      3.48045645     10.46537250      3.48045645    -59.55781080     13.50777150     10.46537250     13.50777150    -18.90847978 
   -64.66448052     -3.72048793     -6.85889952     -3.72048793    -43.65572530     -1.56020462     -6.85889952     -1.56020462    -16.66418545 
   -54.80518751     -0.93012198    -12.04958026     -0.93012198    -66.02065838     -5.42471143    -12.04958026     -5.42471143     -9.99131033 
   -87.62349151    -15.06197533      7.60899789    -15.06197533    -57.48153850      8.13106636      7.60899789      8.13106636    -21.96888114 
   -54.69117256     10.11732685      2.61034234     10.11732685    -73.25760748      5.49672088      2.61034234      5.49672088    -18.39241210 
   -57.93159753     -9.07318992    -10.75941106     -9.07318992    -51.25272161     -9.25921431    -10.75941106     -9.25921431    -15.03797218 
   -63.50632863      4.48258788      1.52419989      4.48258788    -52.73491600      1.99826207      1.52419989      1.99826207    -12.24160544 
   -38.50104928     -0.31804171     14.14985570     -0.31804171    -46.56610698     10.69340240     14.14985570     10.69340240      4.24255640 
   -74.70379714      7.86703173     -2.82036988      7.86703173    -53.25098368      1.06814008     -2.82036988      1.06814008    -29.05581057 
   -39.76121454      7.33896248    -10.21333944      7.33896248    -79.08437164     -4.09253672    -10.21333944     -4.09253672    -20.15664347 
   -59.63582103     -4.99265477      0.65408578     -4.99265477    -26.35545643     -4.72862014      0.65408578     -4.72862014    -17.72632475 
   -35.62667231     -8.07705928      7.53698845     -8.07705928    -74.10371844      3.72648872      7.53698845      3.72648872     -7.00291841 
   -57.95560067      2.11827780    -12.96770067      2.11827780    -37.79295641      0.16802204    -12.96770067      0.16802204     -9.40923399 
   -52.13483730     -8.08906085     -2.61634312     -8.08906085    -78.64031340     -0.59407791     -2.61634312     -0.59407791    -14.65392181 
   -49.99255635     16.11211305     18.10437433     16.11211305    -45.39595352      8.31709076     18.10437433      8.31709076    -15.75206583 
   -61.51406735     -1.68022036      6.03079092     -1.68022036    -53.26298525      1.94425498      6.03079092      1.94425498    -24.75324630 
   -71.37336037      4.92064533    -11.92356373      4.92064533    -58.65769275     -4.30856505    -11.92356373     -4.30856505    -19.40054431 
   -50.17257996     -1.14615031     -2.16028331     -1.14615031    -53.50301673     -7.14693730     -2.16028331     -7.14693730    -19.53856241 
   -49.27846270     -2.13027938     19.74858996     -2.13027938    -51.90680740      1.88424711     19.74858996      1.88424711    -21.30879457 
   -55.63929690      6.25282004     -5.35870278      6.25282004    -57.65556132      4.36257214     -5.35870278      4.36257214    -13.24373687 
   -34.94858338     -7.37496720    -13.12972192     -7.37496720    -52.79492387     -0.20402676    -13.12972192     -0.20402676      2.64034627 
   -50.13057445      4.69861621      9.49924579      4.69861621    -65.17454741      7.10493179      9.49924579      7.10493179    -16.72419332 
   -56.11935986     -6.88890346      5.31069648     -6.88890346    -62.64221531      0.25803384      5.31069648      0.25803384    -10.98744096 
   -60.92599023      1.28416841    -11.28748031      1.28416841    -55.44727172      4.43458158    -11.28748031      4.43458158     -9.42723635 
   -49.90854533      6.75688614     -2.40031479      6.75688614    -51.04869486     -3.78649659     -2.40031479     -3.78649659    -13.91582501 
   -65.18654899    -17.11424447     17.33627359    -17.11424447    -63.05026882      0.69009050     17.33627359      0.69009050    -10.83742129 
   -46.03803773     21.29079221      6.54085781     21.29079221    -68.66700544      9.13319779      6.54085781      9.13319779     -7.46497901 
   -46.14605189    -19.32853487      1.27816763    -19.32853487    -48.23432576     -0.52806925      1.27816763     -0.52806925    -18.56043414 
   -37.43290919     12.99770460     -2.86837618     12.99770460    -48.83440446    -11.60552202     -2.86837618    -11.60552202    -10.11132606 
   -75.43589315     -9.63126311      8.98917890     -9.63126311    -53.53902146      5.20268231      8.98917890      5.20268231     -7.32696091 
   -71.37336037      4.91464454    -11.92356373      4.91464454    -58.65769275     -4.30856505    -11.92356373     -4.30856505    -19.40654510 
   -22.21443895     -2.88919578     -2.88919578     -2.88919578     21.03358507     10.49581290     -2.88919578     10.49581290     22.49616551 
     8.69439287     -5.48646171      3.60367594     -5.48646171      4.20328924      3.48375328      3.60367594      3.48375328     39.37660552 
   -14.29242762     14.70009754      5.88723319     14.70009754     -5.79730600      8.00351966      5.88723319      8.00351966     17.52980636 
    -7.41092990      9.04781005      7.90858943      9.04781005    -29.33792881     -1.34308115      7.90858943     -1.34308115     13.64066790 
   -38.32420614      0.24566799     -3.11578912      0.24566799    -27.83238548     10.07238751     -3.11578912     10.07238751     36.23902419 
   -30.32064329     -9.70332506      0.26370988     -9.70332506    -29.82319056     14.07251837      0.26370988     14.07251837     27.43182138 
     3.67872737     -6.19922572      8.08959949     -6.19922572     -2.95858498     10.91015718      8.08959949     10.91015718     15.01496879 
   -24.87088205     12.75937437    -12.80736449     12.75937437     -4.23512849      1.42170744    -12.80736449      1.42170744      5.05096061 
    -6.28343011    -16.88372060     10.56431665    -16.88372060    -38.30014459    -10.56431665     10.56431665    -10.56431665     22.35174374 
   -36.67681004      5.59873425     21.56082763      5.59873425    -51.82879717    -13.60378409     21.56082763    -13.60378409     -4.31456584 
   -54.16109372    -17.09275590      3.88580923    -17.09275590    -38.55779792     27.82527691      3.88580923     27.82527691    -15.95764316 
     0.19173711    -19.03589975     -2.45663170    -19.03589975     -7.41183758     13.91891568     -2.45663170     13.91891568     32.34365339 
   -12.11367756      0.58711197      1.37791585      0.58711197      5.87111969    -14.76766330      1.37791585    -14.76766330     32.74646961 
   -35.03247908      9.69354041      9.35120349      9.69354041     -5.59150318     11.93975114      9.35120349     11.93975114     19.96965420 
   -35.52612673    -15.40783938     -0.55734308    -15.40783938    -54.59565022     -0.85099696     -0.55734308     -0.85099696     28.74212277 
   -32.86577594    -14.05278709    -24.12475052    -14.05278709    -44.81424209      3.48322069    -24.12475052      3.48322069     19.92210388 
   -32.05885685    -12.86789412     24.78283288    -12.86789412    -25.26230728      3.26641933     24.78283288      3.26641933     15.47503616 
   -26.79309410     -1.62618779     -9.92514617     -1.62618779    -24.50082938      2.15424878     -9.92514617      2.15424878      6.81678721 
    -9.62300020     -4.45753688      1.61983170     -4.45753688    -14.62048098     24.23748180      1.61983170     24.23748180     26.86520879 
   -28.98039313    -16.72291558      0.47351625    -16.72291558    -17.49612566    -12.38934283      0.47351625    -12.38934283     25.65379165 
   -12.14691969     -6.78357824    -10.98436300     -6.78357824    -10.06750128     -8.56336864    -10.98436300     -8.56336864     40.90521649 
   -24.05756038     -7.97120362     21.34651144     -7.97120362    -25.08320057      3.70669965     21.34651144      3.70669965      0.95966334 
   -20.05785075      1.71650069     13.91805981      1.71650069    -34.83416091     -7.32213582     13.91805981     -7.32213582     13.64197928 
     0.49128586      1.73747440    -15.46352213      1.73747440    -24.02507700     -3.70860914    -15.46352213     -3.70860914     30.18412417 
     6.52379272     14.51663803     -3.18994277     14.51663803    -34.26190406     25.13578961     -3.18994277     25.13578961     34.23192339 
   -37.30585945     -0.00600159      6.56573524     -0.00600159    -24.33643180    -18.18480600      6.56573524    -18.18480600     -8.53425549 
   -15.34414740      8.64830166    -22.66286252      8.64830166      0.89836929     -6.00110683    -22.66286252     -6.00110683     45.10412728 
   -32.71034486     -1.84722886     23.85804031     -1.84722886    -33.36407196    -22.52059864     23.85804031    -22.52059864      8.00066007 
    31.64969908     -4.38346533      4.19157629     -4.38346533     21.35365260    -15.26117547      4.19157629    -15.26117547     36.38695983 
   -32.30619855     28.72658092    -18.99169423     28.72658092    -27.74054267     11.00179644    -18.99169423     11.00179644     68.10835088 
   -11.46593813      2.63309644      0.17952930      2.63309644    -51.22569435     18.63514161      0.17952930     18.63514161     42.71002109 
    -1.83613688    -17.75729770      5.18544194    -17.75729770     -3.57059843    -11.92591836      5.18544194    -11.92591836     71.48373935 
   -37.86141541     -5.40791428      7.30880517     -5.40791428    -60.38937866    -13.45662318      7.30880517    -13.45662318    -41.62710432 
   -32.83003959     -8.96401776      7.05473601     -8.96401776    -24.18423545    -12.95669814      7.05473601    -12.95669814     -4.73117615 
   -35.74464174     -1.57776048     -3.40652831     -1.57776048    -62.59645170      4.12369216     -3.40652831      4.12369216     58.39506679 
   -21.76022553     -7.13932344     -0.40830445     -7.13932344     -6.85110853      9.81131581     -0.40830445      9.81131581     -8.59841141 
   -11.22155600     -1.10238457     10.31688171     -1.10238457    -26.41529120      9.81961040     10.31688171      9.81961040     34.34167592 
   -17.40601569     -8.17446079      7.38764641     -8.17446079    -43.10661650     13.34581327      7.38764641     13.34581327    -11.30970585 
   -24.17652720    -15.62212494    -21.28109882    -15.62212494    -36.85526635      9.73535338    -21.28109882      9.73535338     22.61191683 
    -8.59882553      5.37876325     -1.24125306      5.37876325     -9.74413632      4.37736585     -1.24125306      4.37736585     50.55557741 
    18.80237196      6.50735999     10.66967136      6.50735999      4.83403885      3.29266418     10.66967136      3.29266418     16.78718951 
   -16.45293752     -5.57025472     -0.08993953     -5.57025472    -24.24769655      0.32378230     -0.08993953      0.32378230     22.08315192 
   -18.86243395     -7.81940162    -26.13058274     -7.81940162     -2.90606114     -4.27220947    -26.13058274     -4.27220947     22.33772356 
     0.29358247     10.24542920     -2.52241269     10.24542920    -29.46609404     -4.95495319     -2.52241269     -4.95495319     42.50954397 
   -45.82958972    -22.15936206     21.90155563    -22.15936206    -14.17935370      0.92330675     21.90155563      0.92330675     36.78238264 
   -27.14336685     13.17860570     -4.34485908     13.17860570    -19.97194890    -13.09458909     -4.34485908    -13.09458909     10.01598038 
   -16.39874090     -1.00878377      6.02267928     -1.00878377    -49.81470322     10.62225289      6.02267928     10.62225289     -6.65316914 
    31.40878415     -6.32738121     -0.22812190     -6.32738121      6.35739725     -9.65916164     -0.22812190     -9.65916164      6.81964427 
   -35.24908156    -15.72023869     -6.81350292    -15.72023869    -16.49395513     11.20989169     -6.81350292     11.20989169     15.13245410 
   -42.80446974      3.46917525      5.84786709      3.46917525    -44.35631151     11.00070079      5.84786709     11.00070079     32.22318564 
   -13.91875186    -18.14291031      3.71486274    -18.14291031    -10.08405484      9.17331429      3.71486274      9.17331429     30.12633852 
   -16.55419263     -3.88063863     19.51115530     -3.88063863    -10.96415367      6.47172965     19.51115530      6.47172965     21.88632207 
     2.96018411      1.62720059      1.82534679      1.62720059     -1.74728920     12.57928134      1.82534679     12.57928134     -0.40229683 
    -9.19637916     15.57692887     -2.69600692     15.57692887     -9.26228155     10.61627614     -2.69600692     10.61627614     43.87301927 
   -13.90278597     -8.80529745      8.05654766     -8.80529745    -35.93399958      7.51744782      8.05654766      7.51744782     39.51002854 
    -1.94380566      8.93310689    -18.19618079      8.93310689    -25.53344723    -34.56254452    -18.19618079    -34.56254452     24.03959658 
    -9.35711157    -11.00449036      8.68617911    -11.00449036    -17.12674902     30.10809394      8.68617911     30.10809394     25.96268984 
   -29.87986992     14.36486128      4.30706224     14.36486128    -42.99873823     -5.60696837      4.30706224     -5.60696837     40.60858825 
   -36.30332913     -5.40713390      9.23169202     -5.40713390    -33.24608047    -18.73314127      9.23169202    -18.73314127     20.12988428 
    -7.18280134    -12.52339716    -26.04890611    -12.52339716    -28.03512770     21.79443146    -26.04890611     21.79443146     -0.96610778 
   -17.47439674     25.56306079     21.98411218     25.56306079    -29.24409351    -15.10844749     21.98411218    -15.10844749    -11.16319709 
   -19.22968449    -27.14602464    -18.25139529    -27.14602464    -12.12958563      2.79682677    -18.25139529      2.79682677     -3.46302370 
   -30.59942930     -3.58404145     -6.25556314     -3.58404145    -32.92275266     13.47767683     -6.25556314     13.47767683     -3.11577473 
   -52.01535882     17.32049803     -7.60090964     17.32049803    -40.67384404     -7.61287958     -7.60090964     -7.61287958     45.29423950 
   -29.05069358      9.20637444     -8.93084209      9.20637444    -16.40016475      8.84099458     -8.93084209      8.84099458     27.36156047 
   -13.64391885     -4.52997306     20.88587578     -4.52997306    -30.61781789      2.96398237     20.88587578      2.96398237      4.43397363 
   -30.02294729     -2.96745417    -13.79806121     -2.96745417     -7.92922978    -19.07820740    -13.79806121    -19.07820740     -1.09927958 
     8.49478315     -8.11191968     -9.03916714     -8.11191968     -3.26032170     -1.34600437     -9.03916714     -1.34600437     60.61805468 
   -42.68446622     23.59620823     16.68721925     23.59620823    -38.77077307      3.55353734     16.68721925      3.55353734      5.68445922 
   -14.18590634      9.39320809     -8.80463111      9.39320809    -12.29405177      2.25821371     -8.80463111      2.25821371     -8.89471943 
   -35.32897015      3.59155915    -11.00214286      3.59155915    -44.81068631     -0.40105744    -11.00214286     -0.40105744     53.11317387 
    19.13567928    -15.91838816      5.10204749    -15.91838816    -15.56424604      5.77431727      5.10204749      5.77431727      0.19807949 
   -31.25884920     -7.86881415      1.44872743     -7.86881415    -25.62624502     -1.55091983      1.44872743     -1.55091983    -27.93459081 
   -27.60678591      3.55269619      2.99552798      3.55269619    -14.28267743     -8.63311165      2.99552798     -8.63311165     38.14505336 
   -17.83420916     -3.26600941     -8.70136818     -3.26600941    -36.48941518      1.53412552     -8.70136818      1.53412552     15.01165791 
    -8.72300966    -10.47120377      0.80824043    -10.47120377    -42.48949868      9.53723706      0.80824043      9.53723706     50.78743374 
    -6.22739353      1.21071559    -14.94814194      1.21071559      4.28545368    -13.90524831    -14.94814194    -13.90524831     40.78073686 
   -45.71593474     24.66838073      3.60883723     24.66838073    -30.53124254     12.36716147      3.60883723     12.36716147     20.26823700 
   -21.63110590     -9.11664972     -0.21535393     -9.11664972    -38.75174337     13.93818494     -0.21535393     13.93818494     59.03688721 
   -23.07227818     -2.22484830     18.73081744     -2.22484830      4.15505453    -10.98594012     18.73081744    -10.98594012    -31.23807275 
    -3.87138692      8.57107057      2.92904933      8.57107057     -2.54491171     -8.90719099      2.92904933     -8.90719099      2.65895256 
   -19.13666471     -7.91428803    -20.70995099     -7.91428803      3.71486989     26.66809980    -20.70995099     26.66809980     54.92145004 
   -21.39853277     12.05618793     17.62797200     12.05618793    -35.85034769    -12.06819609     17.62797200    -12.06819609     -8.07548445 
   -16.21349683    -20.34904412     15.14375266    -20.34904412      2.59368139    -14.95848970     15.14375266    -14.95848970     76.17893257 
    -9.40562728     -3.98553702     26.54223602     -3.98553702     -4.82586109      9.93383098     26.54223602      9.93383098      9.36361108 
   -10.70066558      3.70084679     -2.38125798      3.70084679    -13.78970301     -2.56720004     -2.38125798     -2.56720004     16.91472923 
   -44.24329637     14.58167800     29.40948560     14.58167800    -12.75671707      3.19368164     29.40948560      3.19368164     -5.29478798 
   -21.61817021      2.18395575    -13.33708868      2.18395575    -18.96750610    -10.84797747    -13.33708868    -10.84797747     57.90773630 
   -10.51057852      7.20502557      9.68269049      7.20502557    -15.33992539     12.10036351      9.68269049     12.10036351      6.35913997 
   -25.73946187      4.77941669     -7.24987864      4.77941669    -25.64375390    -12.15491204     -7.24987864    -12.15491204     65.94877228 
    -7.82113868      3.40936820      8.69148795      3.40936820     -7.80913386     -4.45978974      8.69148795     -4.45978974     24.40579422 
   -16.18070376     -5.42568444     14.62104530     -5.42568444    -29.79610056     -4.40197039     14.62104530     -4.40197039    -52.98021276 
   -21.52880285      1.51797938    -13.34858061      1.51797938    -25.64300887     17.08329179    -13.34858061     17.08329179    -62.71302922 
    -1.83569562     -8.07706073     -1.63707937     -8.07706073      7.17425960     -6.15108499     -1.63707937     -6.15108499    -32.74158744 
   -23.39259896      7.23525917      4.65683209      7.23525917    -21.53709536     10.42214684      4.65683209     10.42214684    -66.04508430 
   -20.39776688     -1.10079367      6.92958639     -1.10079367    -12.90876075     -8.37926549      6.92958639     -8.37926549    -38.98493870 
   -33.22636427     -5.26239290    -10.87320906     -5.26239290    -19.93822148      0.42651815    -10.87320906      0.42651815    -13.93092366 
    -0.04811404      1.33516467     15.17396603      1.33516467    -11.49925606     -9.13565374     15.17396603     -9.13565374     -4.16787890 
   -97.67480971     -9.95530560      0.53407004     -9.95530560    -55.11722843     17.10224290      0.53407004     17.10224290    -19.82660019 
   -32.98846375      4.48969630     -0.09603628      4.48969630    -18.69106188      4.51970764     -0.09603628      4.51970764    -11.47633601 
   -26.17502556      1.67010721     -2.55922903      1.67010721    -40.05854268     17.18167847     -2.55922903     17.18167847    -20.96044622 
   -12.70442938     14.13337749     -0.09005975     14.13337749    -40.76704892      7.79917475     -0.09005975      7.79917475     -5.04334626 
   -40.33460774    -21.11564732     15.00543443    -21.11564732    -14.69332139     23.05434945     15.00543443     23.05434945     -0.01200435 
   -12.35585123      3.65810083     17.29939307      3.65810083     -1.28544101    -37.25376245     17.29939307    -37.25376245      8.37338679 
   -71.37336037      4.91464454    -11.92356373      4.91464454    -58.65769275     -4.30856505    -11.92356373     -4.30856505    -19.40654510 