21.99999137 0.00000000 0.00000000 0.00000000 21.99999137 0.00000000 0.00000000 0.00000000 16.98949333
21.99999137 0.00000000 0.00000000 0.00000000 21.99999137 0.00000000 0.00000000 0.00000000 16.99908533
21.99999137 0.00000000 0.00000000 0.00000000 21.99999137 0.00000000 0.00000000 0.00000000 17.05010331
21.99999137 0.00000000 0.00000000 0.00000000 21.99999137 0.00000000 0.00000000 0.00000000 17.04889331
21.99999137 0.00000000 0.00000000 0.00000000 21.99999137 0.00000000 0.00000000 0.00000000 16.98388334
21.99999137 0.00000000 0.00000000 0.00000000 21.99999137 0.00000000 0.00000000 0.00000000 17.03778332
21.99999137 0.00000000 0.00000000 0.00000000 21.99999137 0.00000000 0.00000000 0.00000000 16.97048534
21.99999137 0.00000000 0.00000000 0.00000000 21.99999137 0.00000000 0.00000000 0.00000000 17.01659732
21.99999137 0.00000000 0.00000000 0.00000000 21.99999137 0.00000000 0.00000000 0.00000000 17.06429331
21.99999137 0.00000000 0.00000000 0.00000000 21.99999137 0.00000000 0.00000000 0.00000000 17.06739530
21.99999137 0.00000000 0.00000000 0.00000000 21.99999137 0.00000000 0.00000000 0.00000000 17.06130131
21.99999137 0.00000000 0.00000000 0.00000000 21.99999137 0.00000000 0.00000000 0.00000000 17.05188531
21.99999137 0.00000000 0.00000000 0.00000000 21.99999137 0.00000000 0.00000000 0.00000000 16.98548934
21.99999137 0.00000000 0.00000000 0.00000000 21.99999137 0.00000000 0.00000000 0.00000000 17.02909332
21.99999137 0.00000000 0.00000000 0.00000000 21.99999137 0.00000000 0.00000000 0.00000000 17.02409932
21.99999137 0.00000000 0.00000000 0.00000000 21.99999137 0.00000000 0.00000000 0.00000000 17.04359131
21.99999137 0.00000000 0.00000000 0.00000000 21.99999137 0.00000000 0.00000000 0.00000000 16.98218934
21.99999137 0.00000000 0.00000000 0.00000000 21.99999137 0.00000000 0.00000000 0.00000000 17.04308531
21.99999137 0.00000000 0.00000000 0.00000000 21.99999137 0.00000000 0.00000000 0.00000000 17.01738932
21.99999137 0.00000000 0.00000000 0.00000000 21.99999137 0.00000000 0.00000000 0.00000000 17.05698931
21.99999137 0.00000000 0.00000000 0.00000000 21.99999137 0.00000000 0.00000000 0.00000000 17.02948932
21.99999137 0.00000000 0.00000000 0.00000000 21.99999137 0.00000000 0.00000000 0.00000000 17.00269333
21.99999137 0.00000000 0.00000000 0.00000000 21.99999137 0.00000000 0.00000000 0.00000000 17.06229131
21.99999137 0.00000000 0.00000000 0.00000000 21.99999137 0.00000000 0.00000000 0.00000000 17.03919131
21.99999137 0.00000000 0.00000000 0.00000000 21.99999137 0.00000000 0.00000000 0.00000000 17.01989732
21.99999137 0.00000000 0.00000000 0.00000000 21.99999137 0.00000000 0.00000000 0.00000000 16.98980133
21.99999137 0.00000000 0.00000000 0.00000000 21.99999137 0.00000000 0.00000000 0.00000000 17.00548733
21.99999137 0.00000000 0.00000000 0.00000000 21.99999137 0.00000000 0.00000000 0.00000000 17.05918931
21.99999137 0.00000000 0.00000000 0.00000000 21.99999137 0.00000000 0.00000000 0.00000000 17.05608731
21.99999137 0.00000000 0.00000000 0.00000000 21.99999137 0.00000000 0.00000000 0.00000000 17.00689533
21.99999137 0.00000000 0.00000000 0.00000000 21.99999137 0.00000000 0.00000000 0.00000000 17.02689332
21.99999137 0.00000000 0.00000000 0.00000000 21.99999137 0.00000000 0.00000000 0.00000000 17.06499730
21.99999137 0.00000000 0.00000000 0.00000000 21.99999137 0.00000000 0.00000000 0.00000000 17.05058731
21.99999137 0.00000000 0.00000000 0.00000000 21.99999137 0.00000000 0.00000000 0.00000000 17.03149132
21.99999137 0.00000000 0.00000000 0.00000000 21.99999137 0.00000000 0.00000000 0.00000000 16.98740334
21.99999137 0.00000000 0.00000000 0.00000000 21.99999137 0.00000000 0.00000000 0.00000000 17.02438532
21.99999137 0.00000000 0.00000000 0.00000000 21.99999137 0.00000000 0.00000000 0.00000000 17.06990330
21.99999137 0.00000000 0.00000000 0.00000000 21.99999137 0.00000000 0.00000000 0.00000000 17.02009532
21.99999137 0.00000000 0.00000000 0.00000000 21.99999137 0.00000000 0.00000000 0.00000000 17.02508932
21.99999137 0.00000000 0.00000000 0.00000000 21.99999137 0.00000000 0.00000000 0.00000000 17.04519731
21.99999137 0.00000000 0.00000000 0.00000000 21.99999137 0.00000000 0.00000000 0.00000000 17.02858732
21.99999137 0.00000000 0.00000000 0.00000000 21.99999137 0.00000000 0.00000000 0.00000000 17.04638531
21.99999137 0.00000000 0.00000000 0.00000000 21.99999137 0.00000000 0.00000000 0.00000000 17.04878331
21.99999137 0.00000000 0.00000000 0.00000000 21.99999137 0.00000000 0.00000000 0.00000000 17.06460130
21.99999137 0.00000000 0.00000000 0.00000000 21.99999137 0.00000000 0.00000000 0.00000000 17.03589132
21.99999137 0.00000000 0.00000000 0.00000000 21.99999137 0.00000000 0.00000000 0.00000000 17.00889733
21.99999137 0.00000000 0.00000000 0.00000000 21.99999137 0.00000000 0.00000000 0.00000000 17.00209933
21.99999137 0.00000000 0.00000000 0.00000000 21.99999137 0.00000000 0.00000000 0.00000000 17.02359332
21.99999137 0.00000000 0.00000000 0.00000000 21.99999137 0.00000000 0.00000000 0.00000000 17.04999331
21.99999137 0.00000000 0.00000000 0.00000000 21.99999137 0.00000000 0.00000000 0.00000000 17.06880330
21.99999137 0.00000000 0.00000000 0.00000000 21.99999137 0.00000000 0.00000000 0.00000000 17.02390132
21.99999137 0.00000000 0.00000000 0.00000000 21.99999137 0.00000000 0.00000000 0.00000000 17.00198933
21.99999137 0.00000000 0.00000000 0.00000000 21.99999137 0.00000000 0.00000000 0.00000000 16.99598333
21.99999137 0.00000000 0.00000000 0.00000000 21.99999137 0.00000000 0.00000000 0.00000000 17.00869933
21.99999137 0.00000000 0.00000000 0.00000000 21.99999137 0.00000000 0.00000000 0.00000000 17.05758331
21.99999137 0.00000000 0.00000000 0.00000000 21.99999137 0.00000000 0.00000000 0.00000000 17.06798930
21.99999137 0.00000000 0.00000000 0.00000000 21.99999137 0.00000000 0.00000000 0.00000000 17.03938931
21.99999137 0.00000000 0.00000000 0.00000000 21.99999137 0.00000000 0.00000000 0.00000000 17.01620132
21.99999137 0.00000000 0.00000000 0.00000000 21.99999137 0.00000000 0.00000000 0.00000000 17.06449130
21.99999137 0.00000000 0.00000000 0.00000000 21.99999137 0.00000000 0.00000000 0.00000000 17.05399731
21.99999137 0.00000000 0.00000000 0.00000000 21.99999137 0.00000000 0.00000000 0.00000000 17.02929132
21.99999137 0.00000000 0.00000000 0.00000000 21.99999137 0.00000000 0.00000000 0.00000000 17.02700332
21.99999137 0.00000000 0.00000000 0.00000000 21.99999137 0.00000000 0.00000000 0.00000000 17.05199531
21.99999137 0.00000000 0.00000000 0.00000000 21.99999137 0.00000000 0.00000000 0.00000000 17.06440330
21.99999137 0.00000000 0.00000000 0.00000000 21.99999137 0.00000000 0.00000000 0.00000000 17.01719132
21.99999137 0.00000000 0.00000000 0.00000000 21.99999137 0.00000000 0.00000000 0.00000000 16.99730333
21.99999137 0.00000000 0.00000000 0.00000000 21.99999137 0.00000000 0.00000000 0.00000000 17.06790130
21.99999137 0.00000000 0.00000000 0.00000000 21.99999137 0.00000000 0.00000000 0.00000000 17.13238328
21.99999137 0.00000000 0.00000000 0.00000000 21.99999137 0.00000000 0.00000000 0.00000000 17.02308732
21.99999137 0.00000000 0.00000000 0.00000000 21.99999137 0.00000000 0.00000000 0.00000000 17.01239533
21.99999137 0.00000000 0.00000000 0.00000000 21.99999137 0.00000000 0.00000000 0.00000000 17.02999532
21.99999137 0.00000000 0.00000000 0.00000000 21.99999137 0.00000000 0.00000000 0.00000000 17.00060333
21.99999137 0.00000000 0.00000000 0.00000000 21.99999137 0.00000000 0.00000000 0.00000000 17.02709132
21.99999137 0.00000000 0.00000000 0.00000000 21.99999137 0.00000000 0.00000000 0.00000000 17.05239131
21.99999137 0.00000000 0.00000000 0.00000000 21.99999137 0.00000000 0.00000000 0.00000000 17.04700131
21.99999137 0.00000000 0.00000000 0.00000000 21.99999137 0.00000000 0.00000000 0.00000000 17.06279731
21.99999137 0.00000000 0.00000000 0.00000000 21.99999137 0.00000000 0.00000000 0.00000000 17.00348533
21.99999137 0.00000000 0.00000000 0.00000000 21.99999137 0.00000000 0.00000000 0.00000000 17.01039333
21.99999137 0.00000000 0.00000000 0.00000000 21.99999137 0.00000000 0.00000000 0.00000000 17.02819132
21.99999137 0.00000000 0.00000000 0.00000000 21.99999137 0.00000000 0.00000000 0.00000000 17.04119331
21.99999137 0.00000000 0.00000000 0.00000000 21.99999137 0.00000000 0.00000000 0.00000000 16.98639134
21.99999137 0.00000000 0.00000000 0.00000000 21.99999137 0.00000000 0.00000000 0.00000000 17.00878733
21.99999137 0.00000000 0.00000000 0.00000000 21.99999137 0.00000000 0.00000000 0.00000000 16.98379534
21.99999137 0.00000000 0.00000000 0.00000000 21.99999137 0.00000000 0.00000000 0.00000000 17.02359332
21.99999137 0.00000000 0.00000000 0.00000000 21.99999137 0.00000000 0.00000000 0.00000000 16.97129934
21.99999137 0.00000000 0.00000000 0.00000000 21.99999137 0.00000000 0.00000000 0.00000000 17.02099732
21.99999137 0.00000000 0.00000000 0.00000000 21.99999137 0.00000000 0.00000000 0.00000000 17.09898729
21.99999137 0.00000000 0.00000000 0.00000000 21.99999137 0.00000000 0.00000000 0.00000000 17.03228332
21.99999137 0.00000000 0.00000000 0.00000000 21.99999137 0.00000000 0.00000000 0.00000000 17.04909131
21.99999137 0.00000000 0.00000000 0.00000000 21.99999137 0.00000000 0.00000000 0.00000000 17.06130131
21.99999137 0.00000000 0.00000000 0.00000000 21.99999137 0.00000000 0.00000000 0.00000000 17.04418531
21.99999137 0.00000000 0.00000000 0.00000000 21.99999137 0.00000000 0.00000000 0.00000000 17.03448332
21.99999137 0.00000000 0.00000000 0.00000000 21.99999137 0.00000000 0.00000000 0.00000000 17.03809132
21.99999137 0.00000000 0.00000000 0.00000000 21.99999137 0.00000000 0.00000000 0.00000000 17.03800332
21.99999137 0.00000000 0.00000000 0.00000000 21.99999137 0.00000000 0.00000000 0.00000000 17.06928730
21.99999137 0.00000000 0.00000000 0.00000000 21.99999137 0.00000000 0.00000000 0.00000000 17.03789332
21.99999137 0.00000000 0.00000000 0.00000000 21.99999137 0.00000000 0.00000000 0.00000000 17.05388731
21.99999137 0.00000000 0.00000000 0.00000000 21.99999137 0.00000000 0.00000000 0.00000000 17.04218331
21.99999137 0.00000000 0.00000000 0.00000000 21.99999137 0.00000000 0.00000000 0.00000000 17.06708730
21.99999137 0.00000000 0.00000000 0.00000000 21.99999137 0.00000000 0.00000000 0.00000000 17.05179731
21.99999137 0.00000000 0.00000000 0.00000000 21.99999137 0.00000000 0.00000000 0.00000000 17.05098331
21.99999137 0.00000000 0.00000000 0.00000000 21.99999137 0.00000000 0.00000000 0.00000000 17.04928931
21.99999137 0.00000000 0.00000000 0.00000000 21.99999137 0.00000000 0.00000000 0.00000000 17.08019930
21.99999137 0.00000000 0.00000000 0.00000000 21.99999137 0.00000000 0.00000000 0.00000000 17.02590332
21.99999137 0.00000000 0.00000000 0.00000000 21.99999137 0.00000000 0.00000000 0.00000000 17.06088331
21.99999137 0.00000000 0.00000000 0.00000000 21.99999137 0.00000000 0.00000000 0.00000000 17.05179731
21.99999137 0.00000000 0.00000000 0.00000000 21.99999137 0.00000000 0.00000000 0.00000000 17.06048731
21.99999137 0.00000000 0.00000000 0.00000000 21.99999137 0.00000000 0.00000000 0.00000000 17.05489931
21.99999137 0.00000000 0.00000000 0.00000000 21.99999137 0.00000000 0.00000000 0.00000000 17.06088331
21.99999137 0.00000000 0.00000000 0.00000000 21.99999137 0.00000000 0.00000000 0.00000000 17.05769331
21.99999137 0.00000000 0.00000000 0.00000000 21.99999137 0.00000000 0.00000000 0.00000000 17.05450331
21.99999137 0.00000000 0.00000000 0.00000000 21.99999137 0.00000000 0.00000000 0.00000000 17.06499730
21.99999137 0.00000000 0.00000000 0.00000000 21.99999137 0.00000000 0.00000000 0.00000000 17.04178731
21.99999137 0.00000000 0.00000000 0.00000000 21.99999137 0.00000000 0.00000000 0.00000000 17.05309531
21.99999137 0.00000000 0.00000000 0.00000000 21.99999137 0.00000000 0.00000000 0.00000000 17.02539732
21.99999137 0.00000000 0.00000000 0.00000000 21.99999137 0.00000000 0.00000000 0.00000000 17.04319531
21.99999137 0.00000000 0.00000000 0.00000000 21.99999137 0.00000000 0.00000000 0.00000000 17.05769331
21.99999137 0.00000000 0.00000000 0.00000000 21.99999137 0.00000000 0.00000000 0.00000000 17.07689930
21.99999137 0.00000000 0.00000000 0.00000000 21.99999137 0.00000000 0.00000000 0.00000000 17.07568930
21.99999137 0.00000000 0.00000000 0.00000000 21.99999137 0.00000000 0.00000000 0.00000000 17.03289932
21.99999137 0.00000000 0.00000000 0.00000000 21.99999137 0.00000000 0.00000000 0.00000000 17.12958928
21.99999137 0.00000000 0.00000000 0.00000000 21.99999137 0.00000000 0.00000000 0.00000000 17.06849530
21.99999137 0.00000000 0.00000000 0.00000000 21.99999137 0.00000000 0.00000000 0.00000000 17.06948530
21.99999137 0.00000000 0.00000000 0.00000000 21.99999137 0.00000000 0.00000000 0.00000000 17.06589930
21.99999137 0.00000000 0.00000000 0.00000000 21.99999137 0.00000000 0.00000000 0.00000000 17.05459131
21.99999137 0.00000000 0.00000000 0.00000000 21.99999137 0.00000000 0.00000000 0.00000000 17.06460130
21.99999137 0.00000000 0.00000000 0.00000000 21.99999137 0.00000000 0.00000000 0.00000000 17.05628531
21.99999137 0.00000000 0.00000000 0.00000000 21.99999137 0.00000000 0.00000000 0.00000000 17.05659331
21.99999137 0.00000000 0.00000000 0.00000000 21.99999137 0.00000000 0.00000000 0.00000000 17.05318331
21.99999137 0.00000000 0.00000000 0.00000000 21.99999137 0.00000000 0.00000000 0.00000000 17.05949731
21.99999137 0.00000000 0.00000000 0.00000000 21.99999137 0.00000000 0.00000000 0.00000000 17.04858531
21.99999137 0.00000000 0.00000000 0.00000000 21.99999137 0.00000000 0.00000000 0.00000000 17.05058731
21.99999137 0.00000000 0.00000000 0.00000000 21.99999137 0.00000000 0.00000000 0.00000000 17.05910131
21.99999137 0.00000000 0.00000000 0.00000000 21.99999137 0.00000000 0.00000000 0.00000000 17.07469930
21.99999137 0.00000000 0.00000000 0.00000000 21.99999137 0.00000000 0.00000000 0.00000000 17.07379730
21.99999137 0.00000000 0.00000000 0.00000000 21.99999137 0.00000000 0.00000000 0.00000000 17.05258931
21.99999137 0.00000000 0.00000000 0.00000000 21.99999137 0.00000000 0.00000000 0.00000000 17.03989531
21.99999137 0.00000000 0.00000000 0.00000000 21.99999137 0.00000000 0.00000000 0.00000000 17.00399133
21.99999137 0.00000000 0.00000000 0.00000000 21.99999137 0.00000000 0.00000000 0.00000000 17.07219130
21.99999137 0.00000000 0.00000000 0.00000000 21.99999137 0.00000000 0.00000000 0.00000000 17.05208331
21.99999137 0.00000000 0.00000000 0.00000000 21.99999137 0.00000000 0.00000000 0.00000000 17.10439929
21.99999137 0.00000000 0.00000000 0.00000000 21.99999137 0.00000000 0.00000000 0.00000000 17.06849530
21.99999137 0.00000000 0.00000000 0.00000000 21.99999137 0.00000000 0.00000000 0.00000000 17.08578730
21.99999137 0.00000000 0.00000000 0.00000000 21.99999137 0.00000000 0.00000000 0.00000000 17.02799332
21.99999137 0.00000000 0.00000000 0.00000000 21.99999137 0.00000000 0.00000000 0.00000000 17.07799930
21.99999137 0.00000000 0.00000000 0.00000000 21.99999137 0.00000000 0.00000000 0.00000000 17.07588730
21.99999137 0.00000000 0.00000000 0.00000000 21.99999137 0.00000000 0.00000000 0.00000000 17.05828731
21.99999137 0.00000000 0.00000000 0.00000000 21.99999137 0.00000000 0.00000000 0.00000000 17.11630128
21.99999137 0.00000000 0.00000000 0.00000000 21.99999137 0.00000000 0.00000000 0.00000000 17.04689131
21.99999137 0.00000000 0.00000000 0.00000000 21.99999137 0.00000000 0.00000000 0.00000000 17.06339131
21.99999137 0.00000000 0.00000000 0.00000000 21.99999137 0.00000000 0.00000000 0.00000000 17.06589930
21.99999137 0.00000000 0.00000000 0.00000000 21.99999137 0.00000000 0.00000000 0.00000000 17.06779130
21.99999137 0.00000000 0.00000000 0.00000000 21.99999137 0.00000000 0.00000000 0.00000000 17.06578930
21.99999137 0.00000000 0.00000000 0.00000000 21.99999137 0.00000000 0.00000000 0.00000000 17.05839731
21.99999137 0.00000000 0.00000000 0.00000000 21.99999137 0.00000000 0.00000000 0.00000000 17.05949731
21.99999137 0.00000000 0.00000000 0.00000000 21.99999137 0.00000000 0.00000000 0.00000000 17.06440330
21.99999137 0.00000000 0.00000000 0.00000000 21.99999137 0.00000000 0.00000000 0.00000000 17.06119131
21.99999137 0.00000000 0.00000000 0.00000000 21.99999137 0.00000000 0.00000000 0.00000000 17.05599931
21.99999137 0.00000000 0.00000000 0.00000000 21.99999137 0.00000000 0.00000000 0.00000000 17.05848531
21.99999137 0.00000000 0.00000000 0.00000000 21.99999137 0.00000000 0.00000000 0.00000000 17.06589930
21.99999137 0.00000000 0.00000000 0.00000000 21.99999137 0.00000000 0.00000000 0.00000000 17.06869330
21.99999137 0.00000000 0.00000000 0.00000000 21.99999137 0.00000000 0.00000000 0.00000000 17.06798930
21.99999137 0.00000000 0.00000000 0.00000000 21.99999137 0.00000000 0.00000000 0.00000000 17.06059731
21.99999137 0.00000000 0.00000000 0.00000000 21.99999137 0.00000000 0.00000000 0.00000000 17.05789131
21.99999137 0.00000000 0.00000000 0.00000000 21.99999137 0.00000000 0.00000000 0.00000000 17.05978331
21.99999137 0.00000000 0.00000000 0.00000000 21.99999137 0.00000000 0.00000000 0.00000000 17.06499730
21.99999137 0.00000000 0.00000000 0.00000000 21.99999137 0.00000000 0.00000000 0.00000000 17.03668332
21.99999137 0.00000000 0.00000000 0.00000000 21.99999137 0.00000000 0.00000000 0.00000000 17.03729932
21.99999137 0.00000000 0.00000000 0.00000000 21.99999137 0.00000000 0.00000000 0.00000000 17.04790331
21.99999137 0.00000000 0.00000000 0.00000000 21.99999137 0.00000000 0.00000000 0.00000000 17.07408330
21.99999137 0.00000000 0.00000000 0.00000000 21.99999137 0.00000000 0.00000000 0.00000000 17.11159329
21.99999137 0.00000000 0.00000000 0.00000000 21.99999137 0.00000000 0.00000000 0.00000000 17.02559532
21.99999137 0.00000000 0.00000000 0.00000000 21.99999137 0.00000000 0.00000000 0.00000000 17.06609730
21.99999137 0.00000000 0.00000000 0.00000000 21.99999137 0.00000000 0.00000000 0.00000000 17.11179129
21.99999137 0.00000000 0.00000000 0.00000000 21.99999137 0.00000000 0.00000000 0.00000000 17.01329733
21.99999137 0.00000000 0.00000000 0.00000000 21.99999137 0.00000000 0.00000000 0.00000000 17.08649130
21.99999137 0.00000000 0.00000000 0.00000000 21.99999137 0.00000000 0.00000000 0.00000000 17.06198331
21.99999137 0.00000000 0.00000000 0.00000000 21.99999137 0.00000000 0.00000000 0.00000000 17.05419531
21.99999137 0.00000000 0.00000000 0.00000000 21.99999137 0.00000000 0.00000000 0.00000000 17.06779130
21.99999137 0.00000000 0.00000000 0.00000000 21.99999137 0.00000000 0.00000000 0.00000000 17.05529531
21.99999137 0.00000000 0.00000000 0.00000000 21.99999137 0.00000000 0.00000000 0.00000000 17.08149730
21.99999137 0.00000000 0.00000000 0.00000000 21.99999137 0.00000000 0.00000000 0.00000000 17.09619329
21.99999137 0.00000000 0.00000000 0.00000000 21.99999137 0.00000000 0.00000000 0.00000000 17.06068531
21.99999137 0.00000000 0.00000000 0.00000000 21.99999137 0.00000000 0.00000000 0.00000000 17.03309732
21.99999137 0.00000000 0.00000000 0.00000000 21.99999137 0.00000000 0.00000000 0.00000000 17.04409731
21.99999137 0.00000000 0.00000000 0.00000000 21.99999137 0.00000000 0.00000000 0.00000000 17.06079531
21.99999137 0.00000000 0.00000000 0.00000000 21.99999137 0.00000000 0.00000000 0.00000000 17.05230331
21.99999137 0.00000000 0.00000000 0.00000000 21.99999137 0.00000000 0.00000000 0.00000000 17.04539531
21.99999137 0.00000000 0.00000000 0.00000000 21.99999137 0.00000000 0.00000000 0.00000000 17.04189731
21.99999137 0.00000000 0.00000000 0.00000000 21.99999137 0.00000000 0.00000000 0.00000000 17.01298933
21.99999137 0.00000000 0.00000000 0.00000000 21.99999137 0.00000000 0.00000000 0.00000000 17.05188531
21.99999137 0.00000000 0.00000000 0.00000000 21.99999137 0.00000000 0.00000000 0.00000000 17.05199531
21.99999137 0.00000000 0.00000000 0.00000000 21.99999137 0.00000000 0.00000000 0.00000000 17.07010130
21.99999137 0.00000000 0.00000000 0.00000000 21.99999137 0.00000000 0.00000000 0.00000000 17.04350331
21.99999137 0.00000000 0.00000000 0.00000000 21.99999137 0.00000000 0.00000000 0.00000000 17.06719730
21.99999137 0.00000000 0.00000000 0.00000000 21.99999137 0.00000000 0.00000000 0.00000000 17.05679131
21.99999137 0.00000000 0.00000000 0.00000000 21.99999137 0.00000000 0.00000000 0.00000000 17.04838731
21.99999137 0.00000000 0.00000000 0.00000000 21.99999137 0.00000000 0.00000000 0.00000000 17.06809930
21.99999137 0.00000000 0.00000000 0.00000000 21.99999137 0.00000000 0.00000000 0.00000000 17.06589930
21.99999137 0.00000000 0.00000000 0.00000000 21.99999137 0.00000000 0.00000000 0.00000000 17.06748330
21.99999137 0.00000000 0.00000000 0.00000000 21.99999137 0.00000000 0.00000000 0.00000000 17.05580131
21.99999137 0.00000000 0.00000000 0.00000000 21.99999137 0.00000000 0.00000000 0.00000000 17.06609730
21.99999137 0.00000000 0.00000000 0.00000000 21.99999137 0.00000000 0.00000000 0.00000000 17.06849530
21.99999137 0.00000000 0.00000000 0.00000000 21.99999137 0.00000000 0.00000000 0.00000000 17.07010130
21.99999137 0.00000000 0.00000000 0.00000000 21.99999137 0.00000000 0.00000000 0.00000000 17.06688930
21.99999137 0.00000000 0.00000000 0.00000000 21.99999137 0.00000000 0.00000000 0.00000000 17.04638531
21.99999137 0.00000000 0.00000000 0.00000000 21.99999137 0.00000000 0.00000000 0.00000000 17.04398731
21.99999137 0.00000000 0.00000000 0.00000000 21.99999137 0.00000000 0.00000000 0.00000000 17.06169731
21.99999137 0.00000000 0.00000000 0.00000000 21.99999137 0.00000000 0.00000000 0.00000000 17.05019131
21.99999137 0.00000000 0.00000000 0.00000000 21.99999137 0.00000000 0.00000000 0.00000000 17.04209531
21.99999137 0.00000000 0.00000000 0.00000000 21.99999137 0.00000000 0.00000000 0.00000000 17.03318532
21.99999137 0.00000000 0.00000000 0.00000000 21.99999137 0.00000000 0.00000000 0.00000000 17.08279530
21.99999137 0.00000000 0.00000000 0.00000000 21.99999137 0.00000000 0.00000000 0.00000000 17.11678528
21.99999137 0.00000000 0.00000000 0.00000000 21.99999137 0.00000000 0.00000000 0.00000000 17.03718932
21.99999137 0.00000000 0.00000000 0.00000000 21.99999137 0.00000000 0.00000000 0.00000000 17.05120331
21.99999137 0.00000000 0.00000000 0.00000000 21.99999137 0.00000000 0.00000000 0.00000000 17.12428728
21.99999137 0.00000000 0.00000000 0.00000000 21.99999137 0.00000000 0.00000000 0.00000000 17.02889532
21.99999137 0.00000000 0.00000000 0.00000000 21.99999137 0.00000000 0.00000000 0.00000000 17.05388731
21.99999137 0.00000000 0.00000000 0.00000000 21.99999137 0.00000000 0.00000000 0.00000000 17.06288531
21.99999137 0.00000000 0.00000000 0.00000000 21.99999137 0.00000000 0.00000000 0.00000000 17.06149931
21.99999137 0.00000000 0.00000000 0.00000000 21.99999137 0.00000000 0.00000000 0.00000000 17.05808931
21.99999137 0.00000000 0.00000000 0.00000000 21.99999137 0.00000000 0.00000000 0.00000000 17.05470131
21.99999137 0.00000000 0.00000000 0.00000000 21.99999137 0.00000000 0.00000000 0.00000000 17.05098331
21.99999137 0.00000000 0.00000000 0.00000000 21.99999137 0.00000000 0.00000000 0.00000000 17.05148931
21.99999137 0.00000000 0.00000000 0.00000000 21.99999137 0.00000000 0.00000000 0.00000000 17.05670331
21.99999137 0.00000000 0.00000000 0.00000000 21.99999137 0.00000000 0.00000000 0.00000000 17.05709931
21.99999137 0.00000000 0.00000000 0.00000000 21.99999137 0.00000000 0.00000000 0.00000000 17.06099331
21.99999137 0.00000000 0.00000000 0.00000000 21.99999137 0.00000000 0.00000000 0.00000000 17.06110331
21.99999137 0.00000000 0.00000000 0.00000000 21.99999137 0.00000000 0.00000000 0.00000000 17.05769331
21.99999137 0.00000000 0.00000000 0.00000000 21.99999137 0.00000000 0.00000000 0.00000000 17.05738531
21.99999137 0.00000000 0.00000000 0.00000000 21.99999137 0.00000000 0.00000000 0.00000000 17.05899131
21.99999137 0.00000000 0.00000000 0.00000000 21.99999137 0.00000000 0.00000000 0.00000000 17.06288531
21.99999137 0.00000000 0.00000000 0.00000000 21.99999137 0.00000000 0.00000000 0.00000000 17.06319331
21.99999137 0.00000000 0.00000000 0.00000000 21.99999137 0.00000000 0.00000000 0.00000000 17.06178531
21.99999137 0.00000000 0.00000000 0.00000000 21.99999137 0.00000000 0.00000000 0.00000000 17.05769331
21.99999137 0.00000000 0.00000000 0.00000000 21.99999137 0.00000000 0.00000000 0.00000000 17.05709931
21.99999137 0.00000000 0.00000000 0.00000000 21.99999137 0.00000000 0.00000000 0.00000000 17.05859531
21.99999137 0.00000000 0.00000000 0.00000000 21.99999137 0.00000000 0.00000000 0.00000000 17.05918931
21.99999137 0.00000000 0.00000000 0.00000000 21.99999137 0.00000000 0.00000000 0.00000000 17.06039931
21.99999137 0.00000000 0.00000000 0.00000000 21.99999137 0.00000000 0.00000000 0.00000000 17.06499730
21.99999137 0.00000000 0.00000000 0.00000000 21.99999137 0.00000000 0.00000000 0.00000000 17.06609730
21.99999137 0.00000000 0.00000000 0.00000000 21.99999137 0.00000000 0.00000000 0.00000000 17.04158931
21.99999137 0.00000000 0.00000000 0.00000000 21.99999137 0.00000000 0.00000000 0.00000000 17.01059133
21.99999137 0.00000000 0.00000000 0.00000000 21.99999137 0.00000000 0.00000000 0.00000000 17.04858531
21.99999137 0.00000000 0.00000000 0.00000000 21.99999137 0.00000000 0.00000000 0.00000000 17.03789332
21.99999137 0.00000000 0.00000000 0.00000000 21.99999137 0.00000000 0.00000000 0.00000000 17.03259132
21.99999137 0.00000000 0.00000000 0.00000000 21.99999137 0.00000000 0.00000000 0.00000000 17.06389731
21.99999137 0.00000000 0.00000000 0.00000000 21.99999137 0.00000000 0.00000000 0.00000000 17.06189531
21.99999137 0.00000000 0.00000000 0.00000000 21.99999137 0.00000000 0.00000000 0.00000000 17.07038730
21.99999137 0.00000000 0.00000000 0.00000000 21.99999137 0.00000000 0.00000000 0.00000000 17.09379529
21.99999137 0.00000000 0.00000000 0.00000000 21.99999137 0.00000000 0.00000000 0.00000000 17.08539130
21.99999137 0.00000000 0.00000000 0.00000000 21.99999137 0.00000000 0.00000000 0.00000000 17.05340331
21.99999137 0.00000000 0.00000000 0.00000000 21.99999137 0.00000000 0.00000000 0.00000000 17.06048731
21.99999137 0.00000000 0.00000000 0.00000000 21.99999137 0.00000000 0.00000000 0.00000000 17.04700131
21.99999137 0.00000000 0.00000000 0.00000000 21.99999137 0.00000000 0.00000000 0.00000000 17.07799930
21.99999137 0.00000000 0.00000000 0.00000000 21.99999137 0.00000000 0.00000000 0.00000000 17.04370131
21.99999137 0.00000000 0.00000000 0.00000000 21.99999137 0.00000000 0.00000000 0.00000000 17.04240331
21.99999137 0.00000000 0.00000000 0.00000000 21.99999137 0.00000000 0.00000000 0.00000000 17.04370131
21.99999137 0.00000000 0.00000000 0.00000000 21.99999137 0.00000000 0.00000000 0.00000000 17.06149931
21.99999137 0.00000000 0.00000000 0.00000000 21.99999137 0.00000000 0.00000000 0.00000000 17.07109130
21.99999137 0.00000000 0.00000000 0.00000000 21.99999137 0.00000000 0.00000000 0.00000000 17.06499730
21.99999137 0.00000000 0.00000000 0.00000000 21.99999137 0.00000000 0.00000000 0.00000000 17.03160132
21.99999137 0.00000000 0.00000000 0.00000000 21.99999137 0.00000000 0.00000000 0.00000000 17.05769331
21.99999137 0.00000000 0.00000000 0.00000000 21.99999137 0.00000000 0.00000000 0.00000000 17.05718731
21.99999137 0.00000000 0.00000000 0.00000000 21.99999137 0.00000000 0.00000000 0.00000000 17.06968330
21.99999137 0.00000000 0.00000000 0.00000000 21.99999137 0.00000000 0.00000000 0.00000000 17.04429531
21.99999137 0.00000000 0.00000000 0.00000000 21.99999137 0.00000000 0.00000000 0.00000000 17.03699132
21.99999137 0.00000000 0.00000000 0.00000000 21.99999137 0.00000000 0.00000000 0.00000000 17.06570130
21.99999137 0.00000000 0.00000000 0.00000000 21.99999137 0.00000000 0.00000000 0.00000000 17.06149931
21.99999137 0.00000000 0.00000000 0.00000000 21.99999137 0.00000000 0.00000000 0.00000000 17.06449130
21.99999137 0.00000000 0.00000000 0.00000000 21.99999137 0.00000000 0.00000000 0.00000000 17.06499730
21.99999137 0.00000000 0.00000000 0.00000000 21.99999137 0.00000000 0.00000000 0.00000000 17.04928931
21.99999137 0.00000000 0.00000000 0.00000000 21.99999137 0.00000000 0.00000000 0.00000000 17.06739530
21.99999137 0.00000000 0.00000000 0.00000000 21.99999137 0.00000000 0.00000000 0.00000000 17.05859531
21.99999137 0.00000000 0.00000000 0.00000000 21.99999137 0.00000000 0.00000000 0.00000000 17.04308531
21.99999137 0.00000000 0.00000000 0.00000000 21.99999137 0.00000000 0.00000000 0.00000000 17.05789131
21.99999137 0.00000000 0.00000000 0.00000000 21.99999137 0.00000000 0.00000000 0.00000000 17.05780331
21.99999137 0.00000000 0.00000000 0.00000000 21.99999137 0.00000000 0.00000000 0.00000000 17.04359131
21.99999137 0.00000000 0.00000000 0.00000000 21.99999137 0.00000000 0.00000000 0.00000000 17.05910131
21.99999137 0.00000000 0.00000000 0.00000000 21.99999137 0.00000000 0.00000000 0.00000000 17.06248931
21.99999137 0.00000000 0.00000000 0.00000000 21.99999137 0.00000000 0.00000000 0.00000000 17.04759531
21.99999137 0.00000000 0.00000000 0.00000000 21.99999137 0.00000000 0.00000000 0.00000000 17.04658331
21.99999137 0.00000000 0.00000000 0.00000000 21.99999137 0.00000000 0.00000000 0.00000000 17.04398731
21.99999137 0.00000000 0.00000000 0.00000000 21.99999137 0.00000000 0.00000000 0.00000000 17.06759330
21.99999137 0.00000000 0.00000000 0.00000000 21.99999137 0.00000000 0.00000000 0.00000000 17.07808730
21.99999137 0.00000000 0.00000000 0.00000000 21.99999137 0.00000000 0.00000000 0.00000000 17.10039529
21.99999137 0.00000000 0.00000000 0.00000000 21.99999137 0.00000000 0.00000000 0.00000000 17.06240131
21.99999137 0.00000000 0.00000000 0.00000000 21.99999137 0.00000000 0.00000000 0.00000000 17.08888930
21.99999137 0.00000000 0.00000000 0.00000000 21.99999137 0.00000000 0.00000000 0.00000000 17.08369730
21.99999137 0.00000000 0.00000000 0.00000000 21.99999137 0.00000000 0.00000000 0.00000000 17.07128930
21.99999137 0.00000000 0.00000000 0.00000000 21.99999137 0.00000000 0.00000000 0.00000000 17.03228332
21.99999137 0.00000000 0.00000000 0.00000000 21.99999137 0.00000000 0.00000000 0.00000000 17.05049931
21.99999137 0.00000000 0.00000000 0.00000000 21.99999137 0.00000000 0.00000000 0.00000000 17.05340331
21.99999137 0.00000000 0.00000000 0.00000000 21.99999137 0.00000000 0.00000000 0.00000000 17.05058731