-42256.44130263
-42255.24688615
-42253.67438528
-42257.94063450
-42256.04809006
-42255.72818473
-42256.95066500
-42257.45002636
-42255.25387975
-42255.73641903
-42255.07172422
-42255.91751264
-42255.40983711
-42254.96567773
-42256.48676158
-42258.36060145
-42257.97893046
-42257.18759585
-42258.15958760
-42256.73073651
-42254.96655884
-42256.78647905
-42256.72890681
-42256.03862580
-42257.34093996
-42255.32651799
-42256.96803308
-42256.20733918
-42256.10976102
-42255.43104526
-42257.33172495
-42255.26763947
-42257.58634389
-42257.00803682
-42255.86832750
-42256.60313805
-42255.73559629
-42256.10643946
-42255.70763631
-42256.92470206
-42256.86899230
-42256.87228611
-42257.08071248
-42255.88650471
-42255.55053445
-42255.39857744
-42257.28948851
-42256.48442929
-42256.46695971
-42256.04317936
-42255.80985116
-42256.33965391
-42255.50396854
-42256.34352650
-42256.36693592
-42256.56033493
-42256.97305059
-42257.97530114
-42255.43244243
-42255.16559197
-42256.33900860
-42255.77254706
-42256.84707638
-42256.24245794
-42258.27301259
-42256.04706447
-42256.41489900
-42256.64472836
-42257.32379678
-42257.16354995
-42256.52523033
-42255.82798375
-42256.34109095
-42256.62982631
-42254.74250415
-42255.80262028
-42256.47930933
-42256.16397605
-42256.81917001
-42256.20103879
-42255.26559467
-42255.89210169
-42255.33266477
-42256.61784704
-42255.05403749
-42255.57861212
-42256.96544895
-42256.48284286
-42256.34627254
-42253.32850721
-42257.12174468
-42254.76293582
-42257.03569136
-42255.32559960
-42256.80896968
-42258.20332243
-42257.20070929
-42255.70293187
-42255.77978039
-42257.53371379
-42260.24732196
-42258.60670784
-42257.92196694
-42258.05125141
-42258.69581347
-42257.58690785
-42258.03131172
-42253.32868912
-42256.50985752
-42256.27675259
-42256.06226842
-42255.59788636
-42257.65716277
-42257.00311115
-42255.59590999
-42256.57901937
-42256.90021303
-42257.38671225
-42256.46553152
-42255.07168149
-42253.96668248
-42253.65848825
-42253.92178735
-42255.64651435
-42255.08793459
-42255.75465026
-42253.28967764
-42254.33312788
-42252.85368005
-42253.61531111
-42255.28410603
-42254.17376270
-42255.56019245
-42254.90064522
-42255.51886038
-42255.63230986
-42253.05953794
-42254.36582033
-42254.11740640
-42255.85610604
-42255.71170945
-42248.91626056
-42252.73569987
-42253.56099839
-42252.03897180
-42250.28551597
-42254.20662359
-42253.25743608
-42252.68689202
-42253.04602285
-42251.62471898
-42250.62454670
-42253.84211919
-42252.92350273
-42252.48306641
-42253.28466176
-42251.61177846
-42253.55648102
-42252.75786995
-42253.89438575
-42252.13960376
-42253.61638787
-42251.82659148
-42254.01035718
-42252.92549991
-42253.84357581
-42252.80992508
-42253.95693944
-42252.72895539
-42253.40555601
-42252.74317267
-42252.89993943
-42253.26281387
-42252.95485692
-42253.73677326
-42252.45924148
-42253.59023050
-42252.20832737
-42252.99876278
-42251.80813495
-42252.01028677
-42251.13330647
-42252.55888961
-42252.66636564
-42253.49342324
-42252.68050142
-42252.10994171
-42254.42455354
-42254.96598495
-42258.37519383
-42257.03397432
-42256.33729319
-42256.49922725
-42256.76920880
-42257.76046132
-42256.86775745
-42256.01400956
-42254.43020685
-42253.32385025
-42254.43608560
-42253.86688373
-42254.82104875
-42257.63499623
-42255.56918269
-42254.09065896
-42254.87849051
-42254.92443492
-42255.11557157
-42254.99351703
-42254.13308289
-42255.52696774
-42254.19854875
-42254.00638309
-42254.40669443
-42252.31682302
-42252.69728419
-42253.23534138
-42253.96713963
-42251.84888156
-42254.17506953
-42252.64535518
-42251.61450096
-42252.47225750
-42253.37837836
-42252.97973086
-42252.23065514
-42251.73933311
-42254.57431500
-42253.93755608
-42253.79142993
-42252.23646259
-42253.14881172
-42252.33318305
-42252.66378900
-42253.27879975
-42251.78100178
-42252.98663752
-42254.87493698
-42255.86041252
-42255.86989991
-42257.29554169
-42256.40693014
-42255.79948267
-42255.75438195
-42254.61220088
-42255.07780215
-42254.99990477
-42254.89644187
-42253.88537673
-42255.08677811
-42254.31495080
-42254.79483275
-42255.08604108
-42254.22078740
-42254.14865965
-42253.98002668
-42253.64477602
-42256.55856987
-42254.96657244
-42252.68943206
-42252.49935543
-42253.28693283
-42251.51154651
-42253.07919899
-42251.95377115
-42251.83078612
-42251.66575812
-42251.69496370
-42253.31447919
-42252.58546834
-42253.27226221
-42252.63655012
-42252.25203908
-42253.64473738
-42253.74310794
-42253.06685767
-42252.33757157
-42253.42558455
-42252.45083438
-42251.76121080
-42252.27614198
-42252.14061766
-42252.82112461
-42253.72934224
-42253.40073864
-42252.82277743
-42252.75449846
-42253.12815487
-42252.22177388
-42251.42206864
-42253.45950532
-42254.09701541
-42253.30270782
-42253.33535047
-42252.65618096
-42253.68915481
-42251.07583247
-42253.41979396
-42253.72354934
-42254.13758447
-42251.50956321
-42251.98650606
-42254.24262658
-42253.52451376
-42252.57087310
-42251.93007343
-42252.97119696
-42252.76870893
-42252.38794952
-42252.30310249
-42253.87238588
-42260.43990776
-42256.81332500
-42257.88886890
-42256.29932608
-42257.41100821
-42256.42277725
-42253.74907730
-42252.72667521
-42254.42863593
-42254.63957418
-42255.98337714
-42254.42544063
-42254.11034518
-42254.05478101
-42254.25339359
-42253.06107089
-42255.31744489
-42254.14002180
-42254.95134726
-42253.68966231
-42255.23552539
-42256.04786026
-42254.55681617
-42254.50990032
-42254.56927613
-42254.35800535
-42255.63966361
-42254.62734185
-42254.90925898
-42255.29955803
-42256.48697315
-42254.38878743
-42252.62363913
-42252.37901711
-42252.41419492
-42251.82554983
-42252.80330577
-42253.59046629
-42252.30760543
-42252.60234199
-42253.32756053
-42255.16813964
-42253.09881283
-42253.45297976
-42253.89888488
-42253.31010455
-42254.64726032
-42253.34214869
-42253.83333698
-42251.90348790
-42252.67713020
-42253.66304521
-42253.33517033
-42253.32095442
-42251.66690440
-42252.16844907
-42252.93497832
-42253.49936798
-42252.93104219
-42252.40696430
-42254.68284234
-42251.37366623
-42253.08648729
-42260.38008283
-42258.20690250
-42257.16205129
-42256.30315295
-42255.95571921
-42257.90675577
-42257.10220771
-42254.88724564
-42254.18398140
-42254.56875693
-42253.15456245
-42254.93656521
-42254.37570500
-42252.90905048
-42255.59448221
-42252.67282196
-42252.38292739
-42251.00818902
-42253.50452957
-42252.98618322
-42251.04495651
-42253.20171735
-42252.30124340
-42251.02988412
-42252.73961274
-42252.87700729
-42254.42567411
-42253.28130592
-42250.98322052
-42252.49830153
-42252.63188119
-42253.14298781
-42253.21508358
-42252.87794173
-42253.24399841
-42254.42780884
-42253.85125038
-42251.58025297
-42253.19182342
-42253.98224101
-42253.82510526
-42254.27939163
-42252.32980585
-42252.25182451
-42253.29367663
-42252.48292464
-42251.79796060
-42251.82033055
-42252.82835944
-42251.56311007
-42251.75474483
-42250.98709842
-42251.17876216
-42251.71489374
-42254.27597524
-42256.02419261
-42255.25974503
-42255.49767223
-42253.82375938
-42253.83588193
-42255.32664343
-42256.25405530
-42255.47611414
-42252.81098768
-42253.63607531
-42255.46096365
-42254.27994103
-42252.33419504
-42254.39602607
-42252.65617117
-42254.71583208
-42259.06940144
-42255.07168149
-42258.08535926
-42255.23778353
-42256.21331331
-42255.26549412
-42254.48502243
-42254.49326041
-42255.21143800
-42253.98989652
-42253.92817890
-42253.00038308
-42254.41302557
-42254.67711122
-42253.67578191
-42254.71293271
-42254.79418580
-42254.58228998
-42254.49057451
-42254.78131685
-42254.74054411
-42254.52557463
-42253.86809110
-42252.64238819
-42252.76131437
-42250.86005888
-42251.06758170
-42252.79539583
-42252.30802408
-42252.62029430
-42253.96133912
-42253.27117335
-42252.57714097
-42254.25260201
-42253.92538619
-42251.10187608
-42252.95409636
-42252.02118004
-42251.67985716
-42253.59658872
-42252.56803931
-42252.84409797
-42252.79930597
-42252.43894858
-42252.18848128
-42251.32204621
-42252.92106186
-42252.47678943
-42254.14440705
-42252.80023769
-42251.08730152
-42253.11765849
-42252.61547884
-42253.59971245
-42251.31824641
-42258.56414296
-42258.29082490
-42257.03104828
-42257.31683080
-42256.70343695
-42256.19193535
-42256.05265056
-42253.80683240
-42254.61958170
-42253.90479955
-42254.76359380
-42254.03246889
-42254.58522731
-42256.31852494
-42254.39466618
-42254.77764345
-42254.79811050
-42254.97768326
-42254.15865698
-42254.55809388
-42253.84786868
-42255.42008641
-42254.18725724
-42251.69668618
-42251.00662899
-42252.94553675
-42252.61559421
-42253.11596621
-42252.52091529
-42251.82134894
-42252.68158403
-42252.42594058
-42252.83920699
-42254.34482850
-42253.27292549
-42253.58865959
-42252.90195593
-42252.72030720
-42252.51691875
-42253.41232484
-42253.98351749
-42251.16451617
-42253.31144921
-42253.51996075
-42253.52483091
-42252.37895099
-42253.56116016
-42254.23675967
-42252.56184776
-42251.58519279
-42253.73862227
-42253.09992455
-42252.15080085
-42251.47934577
-42252.29047871
-42252.64109469
-42254.16172261
-42253.03547939
-42253.54359616
-42251.64834663
-42253.82430729
-42252.89208077
-42253.31742619
-42253.06495654
-42252.61829794
-42253.86716279
-42252.78994742
-42253.84762977
-42251.93788079
-42253.12755650
-42253.28484095
-42252.36225612
-42253.77785743
-42253.59255844
