   -52.11683494      9.41523478    -19.86260491      9.41523478    -42.23353878    -19.35853880    -19.86260491    -19.35853880      7.70501049 
   -27.66962877     -1.30817156     26.01941235     -1.30817156    -41.21340499      9.39723241     26.01941235      9.39723241     12.16359521 
   -56.68343383      3.10240687     12.07958420      3.10240687    -64.10040654     -0.90611883     12.07958420     -0.90611883      6.72688221 
   -42.59358600      2.14228095    -15.20599421      2.14228095    -23.93113848    -16.70619096    -15.20599421    -16.70619096      8.32909233 
   -37.59493044     -8.83915922      9.19920644     -8.83915922    -32.55426938     11.02344569      9.19920644     11.02344569     10.17733472 
   -29.91392311      5.81476259     24.30318728      5.81476259    -63.78836562      3.70848635     24.30318728      3.70848635      8.50311515 
   -59.50980450      6.50485309    -17.86434285      6.50485309    -33.89244488     -7.02092077    -17.86434285     -7.02092077     17.59430743 
   -44.93989371     -5.09466815      5.28069254     -5.09466815    -37.14487142      2.77836437      5.28069254      2.77836437     16.94022165 
   -33.33437169      4.59060204     19.66457894      4.59060204    -73.04757993      6.46284758     19.66457894      6.46284758     14.29987538 
   -51.99681920     10.43536856    -17.19225470     10.43536856    -34.69655033     -9.36122769    -17.19225470     -9.36122769     13.35175104 
   -52.68690970    -18.15238062      2.08227308    -18.15238062    -32.59627489      5.98278462      2.08227308      5.98278462     12.76367391 
   -44.02777409     16.46615948     20.61870407     16.46615948    -42.80361354     -1.06814008     20.61870407     -1.06814008     18.00836173 
    -2.12427859     -0.40805351     -9.55325288     -0.40805351    -33.95245275     -7.68700812     -9.55325288     -7.68700812     18.23039085 
   -84.98914603     -4.71061778     -6.90090503     -4.71061778    -53.01095220      1.39818337     -6.90090503      1.39818337     16.56217207 
   -19.52656084      6.76288693     11.77954485      6.76288693    -29.75790264      3.55246589     11.77954485      3.55246589     31.42012064 
   -31.96619225     -2.65234785    -15.89608472     -2.65234785    -60.04987533    -10.78941499    -15.89608472    -10.78941499      8.72514427 
   -37.28889031     -4.75862408    -17.33627359     -4.75862408    -32.77029771      5.32869884    -17.33627359      5.32869884     27.31558234 
   -50.65264292     10.59138902     20.25265606     10.59138902    -34.91857945      2.01026364     20.25265606      2.01026364     22.06489373 
   -34.16848108     15.94409101     -0.52206847     15.94409101    -43.88375520     -7.17094044     -0.52206847     -7.17094044     17.03623424 
   -20.04862931     -8.87516395    -17.06023739     -8.87516395    -23.13303382     -1.00213143    -17.06023739     -1.00213143     30.15995537 
   -77.31413948      2.56833683      5.89277282      2.56833683    -61.94612402      4.23655561      5.89277282      4.23655561     14.01183760 
    -4.51259181     -0.10801417      7.03892313     -0.10801417    -29.43386015      6.51685466      7.03892313      6.51685466     27.10555480 
   -59.26377224      7.22494753    -11.74354012      7.22494753    -28.49773738     -4.03252885    -11.74354012     -4.03252885     23.13903460 
   -38.02098632    -13.35175104     -2.23829354    -13.35175104    -61.50806657     -4.95665005     -2.23829354     -4.95665005     10.36935991 
   -27.97566891     -1.23016133      8.29308761     -1.23016133    -24.39319908      6.27682318      8.29308761      6.27682318     22.20891262 
   -53.25698447     -1.53620147    -15.53003671     -1.53620147    -49.67451464     11.95956846    -15.53003671     11.95956846     19.08250260 
   -65.60060329     -2.49032660     -1.90825026     -2.49032660    -21.90287248     -8.62313089     -1.90825026     -8.62313089     19.97661986 
   -23.14503539      4.76462486      9.98530954      4.76462486    -40.09125783      0.12601653      9.98530954      0.12601653     17.07823975 
   -57.16949758     -2.69435336     -5.56272953     -2.69435336    -65.49258912     12.27160938     -5.56272953     12.27160938     13.72379983 
   -26.91352962      5.11267051    -17.96035544      5.11267051    -15.68005638     -3.90651233    -17.96035544     -3.90651233     20.90074106 
   -35.95671560     -2.25029512     10.20733866     -2.25029512    -62.94225466    -13.15972585     10.20733866    -13.15972585     20.10863718 
   -47.21419198     -1.83624082     -0.36604801     -1.83624082    -22.34092993     11.41949763     -0.36604801     11.41949763     15.83007606 
   -34.81656607      7.81902544    -17.17425234      7.81902544    -29.90792232      3.82250131    -17.17425234      3.82250131     16.61017837 
   -35.89670773     -3.33643756      3.73248950     -3.33643756    -49.03243043    -19.63457501      3.73248950    -19.63457501     23.96714321 
   -35.53666051     -0.21002754      0.74409759     -0.21002754    -37.44491077     11.46150314      0.74409759     11.46150314     13.32174710 
   -43.75773867     -4.77062565    -15.95009180     -4.77062565    -40.66733338      8.25708289    -15.95009180      8.25708289     21.42280953 
   -39.44917362     11.64152675      7.26695304     11.64152675    -48.85240682    -20.27665921      7.26695304    -20.27665921     16.10011147 
   -28.66575941    -12.74567155      9.63126311    -12.74567155    -50.93467990      5.89877360      9.63126311      5.89877360     25.59935727 
   -57.66756290     -4.30256427    -26.44546823     -4.30256427    -29.07981372     27.99967206    -26.44546823     27.99967206     13.92782659 
   -60.53593908      9.21720880     -2.59233998      9.21720880    -45.59397949    -21.89087091     -2.59233998    -21.89087091     16.82620670 
   -24.99327778      5.14267444     19.13650969      5.14267444    -28.19169724    -11.58751966     19.13650969    -11.58751966     28.35971928 
   -60.84798000    -13.21973372     -4.90264296    -13.21973372    -43.00764030     30.52600338     -4.90264296     30.52600338     14.86394935 
   -23.69710779      8.49711437    -10.88542759      8.49711437    -39.49117913      0.44405824    -10.88542759      0.44405824     26.97353748 
   -32.12221272     14.17985964      7.95704354     14.17985964    -44.69986223    -14.79794070      7.95704354    -14.79794070     13.06371326 
   -64.06440182    -26.79351388      8.12506557    -26.79351388    -44.06977960     26.99754063      8.12506557     26.99754063     17.90634835 
   -27.33958549     14.93595880    -11.82155035     14.93595880    -53.93507340      4.23055482    -11.82155035      4.23055482     23.70910937 
   -40.04925232      6.65487276      6.49285151      6.65487276    -33.70041969    -26.30745013      6.49285151    -26.30745013      2.62834470 
   -77.34414341    -12.31961567     14.19786200    -12.31961567    -60.93199102     23.04902280     14.19786200     23.04902280     20.91874342 
    -0.91812041      7.14093651     -3.61847455      7.14093651    -31.19809152      9.67326862     -3.61847455      9.67326862     26.43946744 
   -56.87545902     19.13050890     -4.20655167     19.13050890    -40.12726255    -32.87831188     -4.20655167    -32.87831188      9.88329616 
   -60.17589186    -27.48360438     17.27026493    -27.48360438    -50.52662639      9.71527412     17.27026493      9.71527412     23.46907789 
    -3.22842340      8.88116473     -1.81823846      8.88116473    -21.44081189     28.17969567     -1.81823846     28.17969567     17.07223896 
   -76.10198051      7.74701599    -12.87768886      7.74701599    -64.16641520    -30.64001833    -12.87768886    -30.64001833      9.00718126 
   -23.20504326    -14.12585256     24.03315186    -14.12585256    -13.13572270      1.20015740     24.03315186      1.20015740     35.15861093 
   -32.75829614     -8.30508918     13.43576205     -8.30508918    -71.87742647     27.59761933     13.43576205     27.59761933     13.23773608 
   -42.82161590      8.95317418    -29.97393098      8.95317418    -26.68549971    -24.79525181    -29.97393098    -24.79525181     24.65123292 
   -48.74439266     -4.72261935     12.85968650     -4.72261935    -31.78016786    -12.46963535     12.85968650    -12.46963535     22.68897558 
   -39.10112798    -10.56738588     21.96888114    -10.56738588    -49.51849418     28.88178775     21.96888114     28.88178775     12.64365817 
   -34.37250783     14.15585649    -13.75980455     14.15585649    -50.80266259    -14.40788954    -13.75980455    -14.40788954     25.41933366 
   -47.38821480     -1.57820698      1.66821878     -1.57820698    -39.53918543    -10.48337486      1.66821878    -10.48337486      7.85503016 
   -34.65454482    -12.68566368     25.25731241    -12.68566368    -39.74321218     21.02075680     25.25731241     21.02075680     19.29253015 
   -44.14178904     15.81207370    -21.12277018     15.81207370    -65.62460644    -11.46750392    -21.12277018    -11.46750392     18.95648608 
   -40.84735699     -4.23655561     -7.62099947     -4.23655561    -26.79351388    -13.58578173     -7.62099947    -13.58578173     20.23465370 
   -27.33358470     -9.27121589     28.34171692     -9.27121589    -38.30302331     15.34401231     28.34171692     15.34401231     21.48881818 
   -54.91920246      1.67421957     -6.36683499      1.67421957    -58.69969826      0.42005509     -6.36683499      0.42005509     10.14133000 
   -28.76777279      8.80315450    -13.84381557      8.80315450    -27.54961304    -15.73406347    -13.84381557    -15.73406347      9.52324894 
   -32.35024262    -17.07823975     23.97914478    -17.07823975    -41.54944906     12.92569516     23.97914478     12.92569516     16.21412643 
   -53.96507733      1.56020462      1.47019281      1.56020462    -50.56263111     11.19146772      1.47019281     11.19146772     15.20599421 
   -23.40306923      8.20907659    -20.93074499      8.20907659    -39.13713270    -13.61578566    -20.93074499    -13.61578566     21.10476782 
   -31.48012851      6.73888378     12.78167627      6.73888378    -56.50341022      5.37070435     12.78167627      5.37070435     16.41815318 
   -53.97707890      1.86024396     10.32735440      1.86024396    -39.73121061     13.38175497     10.32735440     13.38175497     15.52403592 
   -35.51865815      2.10627623    -17.49829484      2.10627623    -39.93523737     -0.76810073    -17.49829484     -0.76810073     21.68684415 
   -40.36129324     -3.70848635     -0.07200944     -3.70848635    -59.70182969     -5.56272953     -0.07200944     -5.56272953     15.50003277 
   -34.03646376     -2.57433762     18.09237275     -2.57433762    -25.22730847      7.12293415     18.09237275      7.12293415     32.68028591 
   -65.63660801      7.98104669     -6.07879721      7.98104669    -39.80322005     10.36935991     -6.07879721     10.36935991     21.17677726 
   -10.66939925      3.90651233    -15.04397296      3.90651233    -49.08043673      0.97212749    -15.04397296      0.97212749     16.56217207 
   -37.90097058     -1.27216684     17.91234914     -1.27216684    -42.47357026      0.76810073     17.91234914      0.76810073     28.05367914 
   -59.01173918     -3.95451862     -0.81610703     -3.95451862    -45.05390866      4.03252885     -0.81610703      4.03252885     15.26600208 
   -16.13611620     -4.96265083    -15.79407134     -4.96265083    -45.29994093      9.40923399    -15.79407134      9.40923399     21.67484258 
   -60.39192019      2.89237933     13.75380376      2.89237933    -34.76255899     -9.40923399     13.75380376     -9.40923399     32.45825679 
   -48.55836826     -1.09814402      6.48685073     -1.09814402    -16.26813351     -3.73849029      6.48685073     -3.73849029     23.97314399 
   -12.66766132      6.74488457    -20.15064269      6.74488457    -30.08194514      7.45897822    -20.15064269      7.45897822     18.49442548 
   -58.65169196     -3.15041317      5.90477439     -3.15041317    -70.65926672     -3.92451469      5.90477439     -3.92451469     23.88913298 
   -31.13808365      3.09640608      7.62099947      3.09640608     -5.09466815     -3.04839979      7.62099947     -3.04839979     23.24104798 
   -53.70104270      6.73288299    -12.96770067      6.73288299    -54.91320167      0.27603620    -12.96770067      0.27603620     20.87073712 
   -29.91992389     -6.58286332      4.02052728     -6.58286332    -50.79666180     -3.19241867      4.02052728     -3.19241867     27.11155559 
   -45.40795509      1.45219045     14.53390607      1.45219045    -33.26236224      2.46032266     14.53390607      2.46032266     12.25360702 
   -38.83709335      8.33509312    -10.86142444      8.33509312    -34.69655033      4.60260362    -10.86142444      4.60260362     25.52134704 
   -40.53531606     -8.52111751      2.39431401     -8.52111751    -58.48366993      0.37804958      2.39431401      0.37804958     18.87847585 
   -46.79413689      4.95064926     15.39201861      4.95064926    -28.94779640     -1.18815582     15.39201861     -1.18815582     15.12798398 
   -14.44989505      2.14828174     -7.57299317      2.14828174    -25.88139425      5.20868310     -7.57299317      5.20868310     33.97045511 
   -63.12227827     -0.87611490     -2.55033447     -0.87611490    -76.51603481     -0.33604407     -2.55033447     -0.33604407     19.80259704 
   -12.49363850     -0.43805745     14.23386672     -0.43805745     -0.79810467     -1.51819911     14.23386672     -1.51819911     25.46733995 
   -48.61237534      4.09253672      0.23403069      4.09253672    -66.56672999      7.36296563      0.23403069      7.36296563     26.18143360 
   -49.80053117     -2.68835257    -16.70619096     -2.68835257    -48.27033048     10.14133000    -16.70619096     10.14133000     20.39067417 
   -22.38893623     -4.21255246      7.14693730     -4.21255246    -26.84152017      1.18815582      7.14693730      1.18815582     19.64057579 
   -53.77305215      2.13027938     13.05771247      2.13027938    -53.87506553      1.81223767     13.05771247      1.81223767     23.22904641 
   -18.66244751     -7.02692156    -10.06932056     -7.02692156    -18.83046955      1.08014166    -10.06932056      1.08014166     35.69268097 
   -76.07797736      6.80489244     -5.49672088      6.80489244    -64.85050492      4.97465241     -5.49672088      4.97465241      0.24603227 
   -22.01088665     13.03971011     11.25147559     13.03971011    -23.93713927     -0.96612670     11.25147559     -0.96612670     28.03567678 
     8.13577603     -3.99620717      9.26474936     -3.99620717      8.67935578     -8.26121751      9.26474936     -8.26121751    104.36731192 
   -37.14567491     -1.52309810     -5.78179986     -1.52309810    -24.92505249      4.61707778     -5.78179986      4.61707778     91.85177501 
   -37.54431865      0.33505687    -15.64595909      0.33505687    -30.65172023     -5.82759623    -15.64595909     -5.82759623     74.63990043 
   -15.58597681      0.92880677      9.28806769      0.92880677     -4.48224170     -0.24568437      9.28806769     -0.24568437     60.17469401 
     2.21355117     -1.62725924    -20.16724590     -1.62725924     -8.78839639    -12.56938109    -20.16724590    -12.56938109     80.12456967 
   -26.08185624      8.18946358     13.27422913      8.18946358      8.81159960     -6.30510928     13.27422913     -6.30510928     75.91854073 
    -5.83041682      0.89698720     34.57586671      0.89698720    -10.78178618      4.89755013     34.57586671      4.89755013     82.81583847 
   -46.79413689      4.95064926     15.39201861      4.95064926    -28.95379719     -1.18215504     15.39201861     -1.18215504     15.12798398 
   -20.42681089    -13.66582419     -7.07266339    -13.66582419    -20.43280467     -4.33350477     -7.07266339     -4.33350477     42.35806119 
    -3.01250803      7.56421002    -10.83424855      7.56421002      1.40144509     10.45094733    -10.83424855     10.45094733     59.67520871 
     3.02268507     -0.32855272      3.27955356     -0.32855272      9.80879225     -3.02865875      3.27955356     -3.02865875    113.69716375 
    -9.81569364     -8.41345169      9.92309940     -8.41345169    -17.97853187      0.82941119      9.92309940      0.82941119    114.29166925 
   -39.46062927     -2.00809825     -9.68083188     -2.00809825    -29.45010962     13.16952795     -9.68083188     13.16952795     37.65034368 
    -1.30178823     -4.69123686    -10.01837028     -4.69123686      1.91968772     13.40181988    -10.01837028     13.40181988     47.77022906 
    -6.68615893      4.96532446      0.99784499      4.96532446    -13.18708914      4.72034455      0.99784499      4.72034455     96.45635704 
    -1.16332732    -20.55611376     13.70807353    -20.55611376     -9.76235508     -7.30377671     13.70807353     -7.30377671     47.70841339 
   -12.30763644     12.51776682      5.25325946     12.51776682    -17.18266121    -16.77440791      5.25325946    -16.77440791     23.45055021 
    -0.92738954      2.13000437     -3.06337708      2.13000437     -1.26244641    -22.05392168     -3.06337708    -22.05392168     82.61545052 
   -23.72523319     18.90829191     22.32328759     18.90829191    -15.15179665      3.26521517     22.32328759      3.26521517     51.18898798 
   -52.68090892    -18.15238062      2.08227308    -18.15238062    -32.59027410      5.98278462      2.08227308      5.98278462     12.76367391 
   -25.19463415    -13.03191402     -6.84565125    -13.03191402     -2.67352054      0.50952746     -6.84565125      0.50952746     56.56953663 
     0.93894993    -11.65015585     -1.74632726    -11.65015585     -9.44332448     -2.72714121     -1.74632726     -2.72714121     78.93758065 
    19.40822657    -13.78455711      9.22950424    -13.78455711    -35.75985149    -17.69485806      9.22950424    -17.69485806    104.12743399 
   -26.66684238     -1.72873877      0.21534462     -1.72873877    -33.58179747     -4.97087170      0.21534462     -4.97087170     71.41665123 
   -12.05690324      1.75842342    -14.22342493      1.75842342      8.48604340      6.97968067    -14.22342493      6.97968067     31.15950305 
   -34.90985936     -5.10114844      9.86622121     -5.10114844    -40.38309156     -3.51079039      9.86622121     -3.51079039     19.43237487 
   -22.73985555      8.51320719     -0.12589954      8.51320719      4.31056054      8.38131243     -0.12589954      8.38131243     58.17757930 
    -3.84411711     -6.90627873      3.24720452     -6.90627873     -5.95718770     -2.62044629      3.24720452     -2.62044629    105.40879517 
    15.65012382     -6.63727601      3.89164025     -6.63727601     11.26904415      0.23278216      3.89164025      0.23278216    120.25287743 
   -15.34518481     -2.77481128     -3.53429627     -2.77481128    -26.14542011      3.14558348     -3.53429627      3.14558348     77.27610216 
   -30.04517845     -4.03234772      9.56635610     -4.03234772    -15.13027804      0.67006372      9.56635610      0.67006372     71.88228177 
    -4.29767423      3.12721826     11.21837029      3.12721826    -13.30118168      8.61935780     11.21837029      8.61935780     20.84612093 
     2.40520338      7.38355450     -4.33656369      7.38355450     -4.18061534    -12.57183610     -4.33656369    -12.57183610     40.62454480 
    -4.34959084     -8.80657898      3.97966679     -8.80657898    -43.02455353     22.81596071      3.97966679     22.81596071    115.25520740 
    13.71038637    -10.84007384     10.95392757    -10.84007384     -3.62534255    -20.15211073     10.95392757    -20.15211073     61.43906968 
   -24.19027588      5.01813167     13.44571165      5.01813167    -11.48287785     -9.68211290     13.44571165     -9.68211290     31.75348868 
   -10.65236483     -4.20110118    -29.25211195     -4.20110118     -3.44107291     16.52313443    -29.25211195     16.52313443     84.20754239 
    -8.93062117     -4.76379392    -19.68199065     -4.76379392    -30.39754212     19.71183898    -19.68199065     19.71183898    107.63308808 
   -14.72257927      9.71761817     33.72830762      9.71761817    -13.05823583    -11.71602337     33.72830762    -11.71602337    119.75517783 
    -0.47891592      4.57364706    -18.49812749      4.57364706      6.19597474     -4.78915922    -18.49812749     -4.78915922     80.76917025 
   -15.17970004      2.20958947      0.35329479      2.20958947     -5.25151753      2.76647788      0.35329479      2.76647788     72.09010210 
     3.13975137     -4.59898819    -15.47747911     -4.59898819      9.61660990    -10.42397453    -15.47747911    -10.42397453    103.94670186 
   -28.30843499     -9.12499754    -12.41598026     -9.12499754    -26.50736991    -35.63835105    -12.41598026    -35.63835105     75.75842221 
   -31.34681973     -1.87555286      1.12891557     -1.87555286    -16.57534770     -8.08757506      1.12891557     -8.08757506     95.68903430 
   -27.51255593     15.05787024     20.90309425     15.05787024    -10.00673692     38.02679442     20.90309425     38.02679442    104.68264823 
   -36.22980278     14.62009400      4.44412525     14.62009400    -18.42934421    -31.78567753      4.44412525    -31.78567753     65.87726910 
   -24.10648822      0.46785421      8.63730854      0.46785421    -12.36214785    -14.27555162      8.63730854    -14.27555162     30.77640981 
   -38.66440655    -11.73848024     15.96121406    -11.73848024    -13.20803959     10.48485614     15.96121406     10.48485614     26.15215832 
   -27.49355258      3.12072786      1.19198627      3.12072786    -29.12280014     29.94940368      1.19198627     29.94940368     63.10938344 
   -16.12838647    -11.36331708     -3.98283368    -11.36331708    -10.13920778     -4.26348313     -3.98283368     -4.26348313    105.20174482 
   -35.06208468      2.40364223     -5.38726779      2.40364223    -39.56442945      5.65633221     -5.38726779      5.65633221     78.48310427 
   -30.64969482     -5.76773703     27.33847584     -5.76773703     -4.86522067      8.47528613     27.33847584      8.47528613     92.65436216 
    -0.23300308     -8.99152927      9.73235959     -8.99152927     -5.13801672    -20.12788179      9.73235959    -20.12788179    103.25023840 
     7.70341036    -17.04087747     -7.12281145    -17.04087747    -25.69000566    -21.31456434     -7.12281145    -21.31456434     69.91129219 
     3.70006365     -1.52919973    -12.34154132     -1.52919973    -22.73410259     -0.46775521    -12.34154132     -0.46775521     42.87756094 
   -26.82794222     -4.03229192     -6.67248306     -4.03229192    -21.48155517     -7.03850956     -6.67248306     -7.03850956     41.31899131 
   -41.15395641      1.27669571    -16.62101968      1.27669571     -5.30458075      0.17981630    -16.62101968      0.17981630     60.69998785 
   -43.86705484    -11.99849056      5.91264592    -11.99849056    -29.49753354     25.05409055      5.91264592     25.05409055    102.68892321 
    -2.28726453     13.07264243      2.74113425     13.07264243     -0.19707501      1.83936677      2.74113425      1.83936677    105.69789784 
   -24.36011763     11.86606270    -13.97731277     11.86606270    -11.67467459    -25.98093567    -13.97731277    -25.98093567     84.03134119 
   -30.33493507     -0.78504079    -12.53668198     -0.78504079    -24.58196437    -30.92821017    -12.53668198    -30.92821017     42.20642981 
   -38.06932613      7.75786268     -6.56988371      7.75786268    -35.29737520     -9.74982742     -6.56988371     -9.74982742     33.11941375 
   -37.02046356     -4.42473275    -12.93890049     -4.42473275    -11.10075035     39.25977350    -12.93890049     39.25977350     58.62920576 
    -8.37262454    -11.44437973     -9.74116917    -11.44437973    -35.40885112     -1.91835295     -9.74116917     -1.91835295    103.58508294 
   -60.56097142      5.92795746      2.93403955      5.92795746    -22.00529661     -3.83221492      2.93403955     -3.83221492     62.90820306 
    -9.87407539      5.61502170      0.54955532      5.61502170     -1.05729664     30.20164862      0.54955532     30.20164862    100.03698764 
   -10.63643113     15.78676616     28.28187466     15.78676616    -17.72338806     -0.34175681     28.28187466     -0.34175681     50.37015667 
   -24.86537880      9.08392787     13.25713830      9.08392787    -46.61284176    -10.51696996     13.25713830    -10.51696996     51.94927464 
   -34.99202549    -15.05970790     -8.10310215    -15.05970790    -25.79616896    -12.02029818     -8.10310215    -12.02029818     95.04574569 
   -12.14972407    -15.02855031      1.84340641    -15.02855031     -0.78404623     20.37323189      1.84340641     20.37323189     74.22703345 
    -4.39445147    -17.13355806      6.05737914    -17.13355806    -16.07696863     12.14477503      6.05737914     12.14477503     35.04755148 
   -39.22063248    -14.16134287     -2.36521371    -14.16134287    -27.31672143      4.02385726     -2.36521371      4.02385726     59.01058520 
   -19.97293139    -12.05180767      5.27676968    -12.05180767    -60.71269729      9.55071435      5.27676968      9.55071435    107.96485655 
   -14.22648358      1.99386323      8.56223549      1.99386323    -21.27984960      0.65264592      8.56223549      0.65264592     65.24064187 
   -23.66815473     -5.67292901    -12.34625839     -5.67292901    -30.78477529      3.69009955    -12.34625839      3.69009955     55.14781890 
   -17.13684550    -10.60596261     -5.21634105    -10.60596261    -59.77580278     -0.13145418     -5.21634105     -0.13145418     98.02897045 
   -20.97404952    -12.63967199     -0.97874895    -12.63967199     -9.07294269     13.82858175     -0.97874895     13.82858175     19.09461136 
    -3.73207643     -4.99007972      4.01962004     -4.99007972     -0.10183836     -0.48522984      4.01962004     -0.48522984     66.23686853 
   -50.92249778    -16.41022029    -13.66621624    -16.41022029    -11.74122865     -1.05814535    -13.66621624     -1.05814535     84.04184947 
     1.43055377    -11.04506722     16.27850976    -11.04506722      7.44484024     -0.07152769     16.27850976     -0.07152769    130.65128358 
   -31.26906478      1.37696437     16.02068109      1.37696437    -15.94883947      4.88523011     16.02068109      4.88523011     53.68963678 
   -19.16187093     -3.05296913      2.57407201     -3.05296913     15.88142567      0.83208374      2.57407201      0.83208374     71.29580842 
   -33.36013007      0.26980695     -7.77044007      0.26980695    -30.16441668      2.02055425     -7.77044007      2.02055425     39.19395584 
   -31.50314344     19.03825813      8.63689750     19.03825813    -56.51665129      5.89749372      8.63689750      5.89749372     72.64204994 
   -19.98380889     -1.61594142     14.47763813     -1.61594142     -2.71119060     12.95745620     14.47763813     12.95745620     67.61218600 
   -14.13076893     11.35838974      9.87062591     11.35838974     -3.50729867     18.62991016      9.87062591     18.62991016     97.44554353 
   -24.56606510      0.10777216     -4.26298766      0.10777216     -6.65193720    -15.50122899     -4.26298766    -15.50122899     64.79501742 
   -21.60552775    -10.76082303     -4.14016075    -10.76082303    -22.15075876      0.22767888     -4.14016075      0.22767888     53.70225880 
   -84.98914603     -4.71061778     -6.89490424     -4.71061778    -53.00495141      1.39818337     -6.89490424      1.39818337     16.56217207 
   -16.56325742     -7.16917112      6.84357378     -7.16917112     -6.24061574    -12.61388224      6.84357378    -12.61388224    -43.43106778 
    -0.34949072    -20.13187077    -11.97307011    -20.13187077     -8.30341752      6.01365071    -11.97307011      6.01365071    -19.92097120 
    -0.24651219     -3.71572030     10.69021149     -3.71572030      2.06829739     -2.29677210     10.69021149     -2.29677210     12.41579681 
   -18.74641283      4.97697702     10.59789181      4.97697702      2.10032041     -0.18656141     10.59789181     -0.18656141      4.49552821 
   -30.90980452     11.55878438     -0.71715086     11.55878438     -4.42343469     -7.18958799     -0.71715086     -7.18958799    -20.42975967 
    -6.20719553      3.70390681      6.74747367      3.70390681    -21.46104837     -3.22365957      6.74747367     -3.22365957     18.87371639 
     8.62214065     15.98500291    -24.26370400     15.98500291    -22.33562223     -2.51253155    -24.26370400     -2.51253155    -27.33658431 
   -11.68760524     -4.58019661      3.11549416     -4.58019661    -15.85360321     10.51104098      3.11549416     10.51104098     17.62445249 
     1.53099402    -13.05564189     -9.84899301    -13.05564189    -13.70661572    -16.10557485     -9.84899301    -16.10557485    -12.89289843 
     8.28721666     -2.57437795     11.61170473     -2.57437795     34.34904283     -0.60608898     11.61170473     -0.60608898     40.02587625 
   -19.86919522     -8.75183576      6.04923999     -8.75183576     15.40900932      1.52284350      6.04923999      1.52284350     -1.02325453 
   -24.28816033      4.82869606     18.37436403      4.82869606    -16.54777863     -5.49181287     18.37436403     -5.49181287    -24.75837044 
    -0.37245538    -11.08355122     -5.31049283    -11.08355122    -16.46012484     -7.72544546     -5.31049283     -7.72544546     19.95039219 
   -19.07107549     -4.47598743     -7.88110690     -4.47598743    -11.55093531     -9.56561830     -7.88110690     -9.56561830      3.10431386 
   -13.49207576     -2.50343600      4.11020863     -2.50343600    -32.79140090      1.63084413      4.11020863      1.63084413    -16.64544226 
    -5.78893786     -0.46986176     -8.95749281     -0.46986176    -22.27024272    -11.66220987     -8.95749281    -11.66220987    -24.49305028 
   -15.95140513     -2.77154914    -12.57395455     -2.77154914    -11.05020243     -8.95054399    -12.57395455     -8.95054399     28.58534993 