16.99999316 0.00000000 0.00000000 0.00000000 16.99999316 0.00000000 0.00000000 0.00000000 25.52999473
16.99999316 0.00000000 0.00000000 0.00000000 16.99999316 0.00000000 0.00000000 0.00000000 25.52999473
16.99999316 0.00000000 0.00000000 0.00000000 16.99999316 0.00000000 0.00000000 0.00000000 25.52999473
16.99999316 0.00000000 0.00000000 0.00000000 16.99999316 0.00000000 0.00000000 0.00000000 25.52999473
16.99999316 0.00000000 0.00000000 0.00000000 16.99999316 0.00000000 0.00000000 0.00000000 25.52999473
16.99999316 0.00000000 0.00000000 0.00000000 16.99999316 0.00000000 0.00000000 0.00000000 25.52999473
16.99999316 0.00000000 0.00000000 0.00000000 16.99999316 0.00000000 0.00000000 0.00000000 25.52999473
16.99999316 0.00000000 0.00000000 0.00000000 16.99999316 0.00000000 0.00000000 0.00000000 25.52999473
16.99999316 0.00000000 0.00000000 0.00000000 16.99999316 0.00000000 0.00000000 0.00000000 25.52999473
16.99999316 0.00000000 0.00000000 0.00000000 16.99999316 0.00000000 0.00000000 0.00000000 25.52999473
16.99999316 0.00000000 0.00000000 0.00000000 16.99999316 0.00000000 0.00000000 0.00000000 25.52999473
16.99999316 0.00000000 0.00000000 0.00000000 16.99999316 0.00000000 0.00000000 0.00000000 25.52999473
16.99999316 0.00000000 0.00000000 0.00000000 16.99999316 0.00000000 0.00000000 0.00000000 25.52999473
16.99999316 0.00000000 0.00000000 0.00000000 16.99999316 0.00000000 0.00000000 0.00000000 25.52999473
16.99999316 0.00000000 0.00000000 0.00000000 16.99999316 0.00000000 0.00000000 0.00000000 25.52999473
16.99999316 0.00000000 0.00000000 0.00000000 16.99999316 0.00000000 0.00000000 0.00000000 25.52999473
16.99999316 0.00000000 0.00000000 0.00000000 16.99999316 0.00000000 0.00000000 0.00000000 25.52999473
16.99999316 0.00000000 0.00000000 0.00000000 16.99999316 0.00000000 0.00000000 0.00000000 25.52999473
16.99999316 0.00000000 0.00000000 0.00000000 16.99999316 0.00000000 0.00000000 0.00000000 25.52999473
16.99999316 0.00000000 0.00000000 0.00000000 16.99999316 0.00000000 0.00000000 0.00000000 25.52999473
16.99999316 0.00000000 0.00000000 0.00000000 16.99999316 0.00000000 0.00000000 0.00000000 25.52999473
16.99999316 0.00000000 0.00000000 0.00000000 16.99999316 0.00000000 0.00000000 0.00000000 25.52999473
16.99999316 0.00000000 0.00000000 0.00000000 16.99999316 0.00000000 0.00000000 0.00000000 25.52999473
16.99999316 0.00000000 0.00000000 0.00000000 16.99999316 0.00000000 0.00000000 0.00000000 25.52999473
16.99999316 0.00000000 0.00000000 0.00000000 16.99999316 0.00000000 0.00000000 0.00000000 25.52999473
16.99999316 0.00000000 0.00000000 0.00000000 16.99999316 0.00000000 0.00000000 0.00000000 25.52999473
16.99999316 0.00000000 0.00000000 0.00000000 16.99999316 0.00000000 0.00000000 0.00000000 25.52999473
16.99999316 0.00000000 0.00000000 0.00000000 16.99999316 0.00000000 0.00000000 0.00000000 25.52999473
16.99999316 0.00000000 0.00000000 0.00000000 16.99999316 0.00000000 0.00000000 0.00000000 25.52999473
16.99999316 0.00000000 0.00000000 0.00000000 16.99999316 0.00000000 0.00000000 0.00000000 25.52999473
16.99999316 0.00000000 0.00000000 0.00000000 16.99999316 0.00000000 0.00000000 0.00000000 25.52999473
16.99999316 0.00000000 0.00000000 0.00000000 16.99999316 0.00000000 0.00000000 0.00000000 25.52999473
16.99999316 0.00000000 0.00000000 0.00000000 16.99999316 0.00000000 0.00000000 0.00000000 25.52999473
16.99999316 0.00000000 0.00000000 0.00000000 16.99999316 0.00000000 0.00000000 0.00000000 25.52999473
16.99999316 0.00000000 0.00000000 0.00000000 16.99999316 0.00000000 0.00000000 0.00000000 25.52999473
16.99999316 0.00000000 0.00000000 0.00000000 16.99999316 0.00000000 0.00000000 0.00000000 25.52999473
16.99999316 0.00000000 0.00000000 0.00000000 16.99999316 0.00000000 0.00000000 0.00000000 25.52999473
16.99999316 0.00000000 0.00000000 0.00000000 16.99999316 0.00000000 0.00000000 0.00000000 25.52999473
16.99999316 0.00000000 0.00000000 0.00000000 16.99999316 0.00000000 0.00000000 0.00000000 25.52999473
16.99999316 0.00000000 0.00000000 0.00000000 16.99999316 0.00000000 0.00000000 0.00000000 25.52999473
16.99999316 0.00000000 0.00000000 0.00000000 16.99999316 0.00000000 0.00000000 0.00000000 25.52999473
16.99999316 0.00000000 0.00000000 0.00000000 16.99999316 0.00000000 0.00000000 0.00000000 25.52999473
16.99999316 0.00000000 0.00000000 0.00000000 16.99999316 0.00000000 0.00000000 0.00000000 25.52999473
16.99999316 0.00000000 0.00000000 0.00000000 16.99999316 0.00000000 0.00000000 0.00000000 25.52999473
16.99999316 0.00000000 0.00000000 0.00000000 16.99999316 0.00000000 0.00000000 0.00000000 25.52999473
16.99999316 0.00000000 0.00000000 0.00000000 16.99999316 0.00000000 0.00000000 0.00000000 25.52999473
16.99999316 0.00000000 0.00000000 0.00000000 16.99999316 0.00000000 0.00000000 0.00000000 25.52999473
16.99999316 0.00000000 0.00000000 0.00000000 16.99999316 0.00000000 0.00000000 0.00000000 25.52999473
16.99999316 0.00000000 0.00000000 0.00000000 16.99999316 0.00000000 0.00000000 0.00000000 25.52999473
16.99999316 0.00000000 0.00000000 0.00000000 16.99999316 0.00000000 0.00000000 0.00000000 25.52999473
16.99999316 0.00000000 0.00000000 0.00000000 16.99999316 0.00000000 0.00000000 0.00000000 25.52999473
16.99999316 0.00000000 0.00000000 0.00000000 16.99999316 0.00000000 0.00000000 0.00000000 25.52999473
16.99999316 0.00000000 0.00000000 0.00000000 16.99999316 0.00000000 0.00000000 0.00000000 25.52999473
16.99999316 0.00000000 0.00000000 0.00000000 16.99999316 0.00000000 0.00000000 0.00000000 25.52999473
16.99999316 0.00000000 0.00000000 0.00000000 16.99999316 0.00000000 0.00000000 0.00000000 25.52999473
16.99999316 0.00000000 0.00000000 0.00000000 16.99999316 0.00000000 0.00000000 0.00000000 25.52999473
16.99999316 0.00000000 0.00000000 0.00000000 16.99999316 0.00000000 0.00000000 0.00000000 25.52999473
16.99999316 0.00000000 0.00000000 0.00000000 16.99999316 0.00000000 0.00000000 0.00000000 25.52999473
16.99999316 0.00000000 0.00000000 0.00000000 16.99999316 0.00000000 0.00000000 0.00000000 25.52999473
16.99999316 0.00000000 0.00000000 0.00000000 16.99999316 0.00000000 0.00000000 0.00000000 25.52999473
16.99999316 0.00000000 0.00000000 0.00000000 16.99999316 0.00000000 0.00000000 0.00000000 25.52999473
16.99999316 0.00000000 0.00000000 0.00000000 16.99999316 0.00000000 0.00000000 0.00000000 25.52999473
16.99999316 0.00000000 0.00000000 0.00000000 16.99999316 0.00000000 0.00000000 0.00000000 25.52999473
16.99999316 0.00000000 0.00000000 0.00000000 16.99999316 0.00000000 0.00000000 0.00000000 25.52999473
16.99999316 0.00000000 0.00000000 0.00000000 16.99999316 0.00000000 0.00000000 0.00000000 25.52999473
16.99999316 0.00000000 0.00000000 0.00000000 16.99999316 0.00000000 0.00000000 0.00000000 25.52999473
16.99999316 0.00000000 0.00000000 0.00000000 16.99999316 0.00000000 0.00000000 0.00000000 25.52999473
16.99999316 0.00000000 0.00000000 0.00000000 16.99999316 0.00000000 0.00000000 0.00000000 25.52999473
16.99999316 0.00000000 0.00000000 0.00000000 16.99999316 0.00000000 0.00000000 0.00000000 25.52999473
16.99999316 0.00000000 0.00000000 0.00000000 16.99999316 0.00000000 0.00000000 0.00000000 25.52999473
16.99999316 0.00000000 0.00000000 0.00000000 16.99999316 0.00000000 0.00000000 0.00000000 25.52999473
16.99999316 0.00000000 0.00000000 0.00000000 16.99999316 0.00000000 0.00000000 0.00000000 25.52999473
16.99999316 0.00000000 0.00000000 0.00000000 16.99999316 0.00000000 0.00000000 0.00000000 25.52999473
16.99999316 0.00000000 0.00000000 0.00000000 16.99999316 0.00000000 0.00000000 0.00000000 25.52999473
16.99999316 0.00000000 0.00000000 0.00000000 16.99999316 0.00000000 0.00000000 0.00000000 25.52999473
16.99999316 0.00000000 0.00000000 0.00000000 16.99999316 0.00000000 0.00000000 0.00000000 25.52999473
16.99999316 0.00000000 0.00000000 0.00000000 16.99999316 0.00000000 0.00000000 0.00000000 25.52999473
16.99999316 0.00000000 0.00000000 0.00000000 16.99999316 0.00000000 0.00000000 0.00000000 25.52999473
16.99999316 0.00000000 0.00000000 0.00000000 16.99999316 0.00000000 0.00000000 0.00000000 25.52999473
16.99999316 0.00000000 0.00000000 0.00000000 16.99999316 0.00000000 0.00000000 0.00000000 25.52999473
16.99999316 0.00000000 0.00000000 0.00000000 16.99999316 0.00000000 0.00000000 0.00000000 25.52999473
16.99999316 0.00000000 0.00000000 0.00000000 16.99999316 0.00000000 0.00000000 0.00000000 25.52999473
16.99999316 0.00000000 0.00000000 0.00000000 16.99999316 0.00000000 0.00000000 0.00000000 25.52999473
16.99999316 0.00000000 0.00000000 0.00000000 16.99999316 0.00000000 0.00000000 0.00000000 25.52999473
16.99999316 0.00000000 0.00000000 0.00000000 16.99999316 0.00000000 0.00000000 0.00000000 25.52999473
16.99999316 0.00000000 0.00000000 0.00000000 16.99999316 0.00000000 0.00000000 0.00000000 25.52999473
16.99999316 0.00000000 0.00000000 0.00000000 16.99999316 0.00000000 0.00000000 0.00000000 25.52999473
16.99999316 0.00000000 0.00000000 0.00000000 16.99999316 0.00000000 0.00000000 0.00000000 25.52999473
16.99999316 0.00000000 0.00000000 0.00000000 16.99999316 0.00000000 0.00000000 0.00000000 25.52999473
16.99999316 0.00000000 0.00000000 0.00000000 16.99999316 0.00000000 0.00000000 0.00000000 25.52999473
16.99999316 0.00000000 0.00000000 0.00000000 16.99999316 0.00000000 0.00000000 0.00000000 25.52999473
16.99999316 0.00000000 0.00000000 0.00000000 16.99999316 0.00000000 0.00000000 0.00000000 25.52999473
16.99999316 0.00000000 0.00000000 0.00000000 16.99999316 0.00000000 0.00000000 0.00000000 25.52999473
16.99999316 0.00000000 0.00000000 0.00000000 16.99999316 0.00000000 0.00000000 0.00000000 25.52999473
16.99999316 0.00000000 0.00000000 0.00000000 16.99999316 0.00000000 0.00000000 0.00000000 25.52999473
16.99999316 0.00000000 0.00000000 0.00000000 16.99999316 0.00000000 0.00000000 0.00000000 25.52999473
16.99999316 0.00000000 0.00000000 0.00000000 16.99999316 0.00000000 0.00000000 0.00000000 25.52999473
16.99999316 0.00000000 0.00000000 0.00000000 16.99999316 0.00000000 0.00000000 0.00000000 25.52999473
16.99999316 0.00000000 0.00000000 0.00000000 16.99999316 0.00000000 0.00000000 0.00000000 25.52999473
16.99999316 0.00000000 0.00000000 0.00000000 16.99999316 0.00000000 0.00000000 0.00000000 25.52999473
16.99999316 0.00000000 0.00000000 0.00000000 16.99999316 0.00000000 0.00000000 0.00000000 25.53288473
16.99999316 0.00000000 0.00000000 0.00000000 16.99999316 0.00000000 0.00000000 0.00000000 25.52999473
16.99999316 0.00000000 0.00000000 0.00000000 16.99999316 0.00000000 0.00000000 0.00000000 25.47528875
16.99999316 0.00000000 0.00000000 0.00000000 16.99999316 0.00000000 0.00000000 0.00000000 25.52759773
16.99999316 0.00000000 0.00000000 0.00000000 16.99999316 0.00000000 0.00000000 0.00000000 25.52149473
16.99999316 0.00000000 0.00000000 0.00000000 16.99999316 0.00000000 0.00000000 0.00000000 25.52999473
16.99999316 0.00000000 0.00000000 0.00000000 16.99999316 0.00000000 0.00000000 0.00000000 25.50988374
16.99999316 0.00000000 0.00000000 0.00000000 16.99999316 0.00000000 0.00000000 0.00000000 25.54808272
16.99999316 0.00000000 0.00000000 0.00000000 16.99999316 0.00000000 0.00000000 0.00000000 25.57259671
16.99999316 0.00000000 0.00000000 0.00000000 16.99999316 0.00000000 0.00000000 0.00000000 25.52948473
16.99999316 0.00000000 0.00000000 0.00000000 16.99999316 0.00000000 0.00000000 0.00000000 25.52409573
16.99999316 0.00000000 0.00000000 0.00000000 16.99999316 0.00000000 0.00000000 0.00000000 25.52729173
16.99999316 0.00000000 0.00000000 0.00000000 16.99999316 0.00000000 0.00000000 0.00000000 25.53368373
16.99999316 0.00000000 0.00000000 0.00000000 16.99999316 0.00000000 0.00000000 0.00000000 25.53898773
16.99999316 0.00000000 0.00000000 0.00000000 16.99999316 0.00000000 0.00000000 0.00000000 25.53358173
16.99999316 0.00000000 0.00000000 0.00000000 16.99999316 0.00000000 0.00000000 0.00000000 25.53519673
16.99999316 0.00000000 0.00000000 0.00000000 16.99999316 0.00000000 0.00000000 0.00000000 25.53349673
16.99999316 0.00000000 0.00000000 0.00000000 16.99999316 0.00000000 0.00000000 0.00000000 25.54418973
16.99999316 0.00000000 0.00000000 0.00000000 16.99999316 0.00000000 0.00000000 0.00000000 25.53628473
16.99999316 0.00000000 0.00000000 0.00000000 16.99999316 0.00000000 0.00000000 0.00000000 25.52378973
16.99999316 0.00000000 0.00000000 0.00000000 16.99999316 0.00000000 0.00000000 0.00000000 25.51418474
16.99999316 0.00000000 0.00000000 0.00000000 16.99999316 0.00000000 0.00000000 0.00000000 25.55979572
16.99999316 0.00000000 0.00000000 0.00000000 16.99999316 0.00000000 0.00000000 0.00000000 25.53249373
16.99999316 0.00000000 0.00000000 0.00000000 16.99999316 0.00000000 0.00000000 0.00000000 25.59768870
16.99999316 0.00000000 0.00000000 0.00000000 16.99999316 0.00000000 0.00000000 0.00000000 25.55279172
16.99999316 0.00000000 0.00000000 0.00000000 16.99999316 0.00000000 0.00000000 0.00000000 25.55049672
16.99999316 0.00000000 0.00000000 0.00000000 16.99999316 0.00000000 0.00000000 0.00000000 25.50939074
16.99999316 0.00000000 0.00000000 0.00000000 16.99999316 0.00000000 0.00000000 0.00000000 25.61178170
16.99999316 0.00000000 0.00000000 0.00000000 16.99999316 0.00000000 0.00000000 0.00000000 25.53679473
16.99999316 0.00000000 0.00000000 0.00000000 16.99999316 0.00000000 0.00000000 0.00000000 25.46199476
16.99999316 0.00000000 0.00000000 0.00000000 16.99999316 0.00000000 0.00000000 0.00000000 25.53759373
16.99999316 0.00000000 0.00000000 0.00000000 16.99999316 0.00000000 0.00000000 0.00000000 25.52118873
16.99999316 0.00000000 0.00000000 0.00000000 16.99999316 0.00000000 0.00000000 0.00000000 25.50828574
16.99999316 0.00000000 0.00000000 0.00000000 16.99999316 0.00000000 0.00000000 0.00000000 25.52999473
16.99999316 0.00000000 0.00000000 0.00000000 16.99999316 0.00000000 0.00000000 0.00000000 25.52499673
16.99999316 0.00000000 0.00000000 0.00000000 16.99999316 0.00000000 0.00000000 0.00000000 25.52618673
16.99999316 0.00000000 0.00000000 0.00000000 16.99999316 0.00000000 0.00000000 0.00000000 25.52319473
16.99999316 0.00000000 0.00000000 0.00000000 16.99999316 0.00000000 0.00000000 0.00000000 25.52198773
16.99999316 0.00000000 0.00000000 0.00000000 16.99999316 0.00000000 0.00000000 0.00000000 25.53448273
16.99999316 0.00000000 0.00000000 0.00000000 16.99999316 0.00000000 0.00000000 0.00000000 25.52348373
16.99999316 0.00000000 0.00000000 0.00000000 16.99999316 0.00000000 0.00000000 0.00000000 25.52759773
16.99999316 0.00000000 0.00000000 0.00000000 16.99999316 0.00000000 0.00000000 0.00000000 25.52839673
16.99999316 0.00000000 0.00000000 0.00000000 16.99999316 0.00000000 0.00000000 0.00000000 25.52878773
16.99999316 0.00000000 0.00000000 0.00000000 16.99999316 0.00000000 0.00000000 0.00000000 25.52698573
16.99999316 0.00000000 0.00000000 0.00000000 16.99999316 0.00000000 0.00000000 0.00000000 25.52829473
16.99999316 0.00000000 0.00000000 0.00000000 16.99999316 0.00000000 0.00000000 0.00000000 25.53519673
16.99999316 0.00000000 0.00000000 0.00000000 16.99999316 0.00000000 0.00000000 0.00000000 25.53818873
16.99999316 0.00000000 0.00000000 0.00000000 16.99999316 0.00000000 0.00000000 0.00000000 25.52569373
16.99999316 0.00000000 0.00000000 0.00000000 16.99999316 0.00000000 0.00000000 0.00000000 25.46779176
16.99999316 0.00000000 0.00000000 0.00000000 16.99999316 0.00000000 0.00000000 0.00000000 25.52489473
16.99999316 0.00000000 0.00000000 0.00000000 16.99999316 0.00000000 0.00000000 0.00000000 25.48069475
16.99999316 0.00000000 0.00000000 0.00000000 16.99999316 0.00000000 0.00000000 0.00000000 25.46629576
16.99999316 0.00000000 0.00000000 0.00000000 16.99999316 0.00000000 0.00000000 0.00000000 25.49618174
16.99999316 0.00000000 0.00000000 0.00000000 16.99999316 0.00000000 0.00000000 0.00000000 25.50058474
16.99999316 0.00000000 0.00000000 0.00000000 16.99999316 0.00000000 0.00000000 0.00000000 25.58918871
16.99999316 0.00000000 0.00000000 0.00000000 16.99999316 0.00000000 0.00000000 0.00000000 25.58109671
16.99999316 0.00000000 0.00000000 0.00000000 16.99999316 0.00000000 0.00000000 0.00000000 25.47358875
16.99999316 0.00000000 0.00000000 0.00000000 16.99999316 0.00000000 0.00000000 0.00000000 25.67029567
16.99999316 0.00000000 0.00000000 0.00000000 16.99999316 0.00000000 0.00000000 0.00000000 25.54398573
16.99999316 0.00000000 0.00000000 0.00000000 16.99999316 0.00000000 0.00000000 0.00000000 25.60358770
16.99999316 0.00000000 0.00000000 0.00000000 16.99999316 0.00000000 0.00000000 0.00000000 25.53269773
16.99999316 0.00000000 0.00000000 0.00000000 16.99999316 0.00000000 0.00000000 0.00000000 25.55838472
16.99999316 0.00000000 0.00000000 0.00000000 16.99999316 0.00000000 0.00000000 0.00000000 25.56768372
16.99999316 0.00000000 0.00000000 0.00000000 16.99999316 0.00000000 0.00000000 0.00000000 25.58259271
16.99999316 0.00000000 0.00000000 0.00000000 16.99999316 0.00000000 0.00000000 0.00000000 25.63658469
16.99999316 0.00000000 0.00000000 0.00000000 16.99999316 0.00000000 0.00000000 0.00000000 25.52999473
16.99999316 0.00000000 0.00000000 0.00000000 16.99999316 0.00000000 0.00000000 0.00000000 25.57478971
16.99999316 0.00000000 0.00000000 0.00000000 16.99999316 0.00000000 0.00000000 0.00000000 25.57358271
16.99999316 0.00000000 0.00000000 0.00000000 16.99999316 0.00000000 0.00000000 0.00000000 25.64479568
16.99999316 0.00000000 0.00000000 0.00000000 16.99999316 0.00000000 0.00000000 0.00000000 25.60328170
16.99999316 0.00000000 0.00000000 0.00000000 16.99999316 0.00000000 0.00000000 0.00000000 25.64588368
16.99999316 0.00000000 0.00000000 0.00000000 16.99999316 0.00000000 0.00000000 0.00000000 25.57089671
16.99999316 0.00000000 0.00000000 0.00000000 16.99999316 0.00000000 0.00000000 0.00000000 25.64039269
16.99999316 0.00000000 0.00000000 0.00000000 16.99999316 0.00000000 0.00000000 0.00000000 25.53128673
16.99999316 0.00000000 0.00000000 0.00000000 16.99999316 0.00000000 0.00000000 0.00000000 25.65858268
16.99999316 0.00000000 0.00000000 0.00000000 16.99999316 0.00000000 0.00000000 0.00000000 25.54828672
16.99999316 0.00000000 0.00000000 0.00000000 16.99999316 0.00000000 0.00000000 0.00000000 25.63988269
16.99999316 0.00000000 0.00000000 0.00000000 16.99999316 0.00000000 0.00000000 0.00000000 25.54529472
16.99999316 0.00000000 0.00000000 0.00000000 16.99999316 0.00000000 0.00000000 0.00000000 25.54418973
16.99999316 0.00000000 0.00000000 0.00000000 16.99999316 0.00000000 0.00000000 0.00000000 25.64098769
16.99999316 0.00000000 0.00000000 0.00000000 16.99999316 0.00000000 0.00000000 0.00000000 25.65008268
16.99999316 0.00000000 0.00000000 0.00000000 16.99999316 0.00000000 0.00000000 0.00000000 25.62189669
16.99999316 0.00000000 0.00000000 0.00000000 16.99999316 0.00000000 0.00000000 0.00000000 25.58029771
16.99999316 0.00000000 0.00000000 0.00000000 16.99999316 0.00000000 0.00000000 0.00000000 25.58648571
16.99999316 0.00000000 0.00000000 0.00000000 16.99999316 0.00000000 0.00000000 0.00000000 25.58769271
16.99999316 0.00000000 0.00000000 0.00000000 16.99999316 0.00000000 0.00000000 0.00000000 25.69358566
16.99999316 0.00000000 0.00000000 0.00000000 16.99999316 0.00000000 0.00000000 0.00000000 25.60039170
16.99999316 0.00000000 0.00000000 0.00000000 16.99999316 0.00000000 0.00000000 0.00000000 25.56919671
16.99999316 0.00000000 0.00000000 0.00000000 16.99999316 0.00000000 0.00000000 0.00000000 25.59459470
16.99999316 0.00000000 0.00000000 0.00000000 16.99999316 0.00000000 0.00000000 0.00000000 25.60788870
16.99999316 0.00000000 0.00000000 0.00000000 16.99999316 0.00000000 0.00000000 0.00000000 25.59598870
16.99999316 0.00000000 0.00000000 0.00000000 16.99999316 0.00000000 0.00000000 0.00000000 25.53089573
16.99999316 0.00000000 0.00000000 0.00000000 16.99999316 0.00000000 0.00000000 0.00000000 25.54869472
16.99999316 0.00000000 0.00000000 0.00000000 16.99999316 0.00000000 0.00000000 0.00000000 25.59609070
16.99999316 0.00000000 0.00000000 0.00000000 16.99999316 0.00000000 0.00000000 0.00000000 25.66859568
16.99999316 0.00000000 0.00000000 0.00000000 16.99999316 0.00000000 0.00000000 0.00000000 25.59768870
16.99999316 0.00000000 0.00000000 0.00000000 16.99999316 0.00000000 0.00000000 0.00000000 25.64879068
16.99999316 0.00000000 0.00000000 0.00000000 16.99999316 0.00000000 0.00000000 0.00000000 25.66788168
16.99999316 0.00000000 0.00000000 0.00000000 16.99999316 0.00000000 0.00000000 0.00000000 25.54158873
16.99999316 0.00000000 0.00000000 0.00000000 16.99999316 0.00000000 0.00000000 0.00000000 25.60248270
16.99999316 0.00000000 0.00000000 0.00000000 16.99999316 0.00000000 0.00000000 0.00000000 25.65159568
16.99999316 0.00000000 0.00000000 0.00000000 16.99999316 0.00000000 0.00000000 0.00000000 25.64958968
16.99999316 0.00000000 0.00000000 0.00000000 16.99999316 0.00000000 0.00000000 0.00000000 25.64268769
16.99999316 0.00000000 0.00000000 0.00000000 16.99999316 0.00000000 0.00000000 0.00000000 25.59988170
16.99999316 0.00000000 0.00000000 0.00000000 16.99999316 0.00000000 0.00000000 0.00000000 25.67068667
16.99999316 0.00000000 0.00000000 0.00000000 16.99999316 0.00000000 0.00000000 0.00000000 25.65669568
16.99999316 0.00000000 0.00000000 0.00000000 16.99999316 0.00000000 0.00000000 0.00000000 25.59858970
16.99999316 0.00000000 0.00000000 0.00000000 16.99999316 0.00000000 0.00000000 0.00000000 25.56168272
16.99999316 0.00000000 0.00000000 0.00000000 16.99999316 0.00000000 0.00000000 0.00000000 25.57509571
16.99999316 0.00000000 0.00000000 0.00000000 16.99999316 0.00000000 0.00000000 0.00000000 25.58349371
16.99999316 0.00000000 0.00000000 0.00000000 16.99999316 0.00000000 0.00000000 0.00000000 25.60428470
16.99999316 0.00000000 0.00000000 0.00000000 16.99999316 0.00000000 0.00000000 0.00000000 25.57198471
16.99999316 0.00000000 0.00000000 0.00000000 16.99999316 0.00000000 0.00000000 0.00000000 25.55908172
16.99999316 0.00000000 0.00000000 0.00000000 16.99999316 0.00000000 0.00000000 0.00000000 25.56528672
16.99999316 0.00000000 0.00000000 0.00000000 16.99999316 0.00000000 0.00000000 0.00000000 25.52088273
16.99999316 0.00000000 0.00000000 0.00000000 16.99999316 0.00000000 0.00000000 0.00000000 25.57038671
16.99999316 0.00000000 0.00000000 0.00000000 16.99999316 0.00000000 0.00000000 0.00000000 25.55459372
16.99999316 0.00000000 0.00000000 0.00000000 16.99999316 0.00000000 0.00000000 0.00000000 25.60428470
16.99999316 0.00000000 0.00000000 0.00000000 16.99999316 0.00000000 0.00000000 0.00000000 25.59228271
16.99999316 0.00000000 0.00000000 0.00000000 16.99999316 0.00000000 0.00000000 0.00000000 25.62609569
16.99999316 0.00000000 0.00000000 0.00000000 16.99999316 0.00000000 0.00000000 0.00000000 25.63699269
16.99999316 0.00000000 0.00000000 0.00000000 16.99999316 0.00000000 0.00000000 0.00000000 25.66708268
16.99999316 0.00000000 0.00000000 0.00000000 16.99999316 0.00000000 0.00000000 0.00000000 25.52999473
16.99999316 0.00000000 0.00000000 0.00000000 16.99999316 0.00000000 0.00000000 0.00000000 25.55838472
16.99999316 0.00000000 0.00000000 0.00000000 16.99999316 0.00000000 0.00000000 0.00000000 25.61548770
16.99999316 0.00000000 0.00000000 0.00000000 16.99999316 0.00000000 0.00000000 0.00000000 25.60448870
16.99999316 0.00000000 0.00000000 0.00000000 16.99999316 0.00000000 0.00000000 0.00000000 25.64979368
16.99999316 0.00000000 0.00000000 0.00000000 16.99999316 0.00000000 0.00000000 0.00000000 25.58169171
16.99999316 0.00000000 0.00000000 0.00000000 16.99999316 0.00000000 0.00000000 0.00000000 25.61929569
16.99999316 0.00000000 0.00000000 0.00000000 16.99999316 0.00000000 0.00000000 0.00000000 25.55549472
16.99999316 0.00000000 0.00000000 0.00000000 16.99999316 0.00000000 0.00000000 0.00000000 25.52999473
16.99999316 0.00000000 0.00000000 0.00000000 16.99999316 0.00000000 0.00000000 0.00000000 25.53509473
16.99999316 0.00000000 0.00000000 0.00000000 16.99999316 0.00000000 0.00000000 0.00000000 25.64909668
16.99999316 0.00000000 0.00000000 0.00000000 16.99999316 0.00000000 0.00000000 0.00000000 25.63668669
16.99999316 0.00000000 0.00000000 0.00000000 16.99999316 0.00000000 0.00000000 0.00000000 25.53058973
16.99999316 0.00000000 0.00000000 0.00000000 16.99999316 0.00000000 0.00000000 0.00000000 25.60479470
16.99999316 0.00000000 0.00000000 0.00000000 16.99999316 0.00000000 0.00000000 0.00000000 25.53548573
16.99999316 0.00000000 0.00000000 0.00000000 16.99999316 0.00000000 0.00000000 0.00000000 25.54099373
16.99999316 0.00000000 0.00000000 0.00000000 16.99999316 0.00000000 0.00000000 0.00000000 25.52999473
16.99999316 0.00000000 0.00000000 0.00000000 16.99999316 0.00000000 0.00000000 0.00000000 25.59328571
16.99999316 0.00000000 0.00000000 0.00000000 16.99999316 0.00000000 0.00000000 0.00000000 25.59039571
16.99999316 0.00000000 0.00000000 0.00000000 16.99999316 0.00000000 0.00000000 0.00000000 25.59899770
16.99999316 0.00000000 0.00000000 0.00000000 16.99999316 0.00000000 0.00000000 0.00000000 25.57018271
16.99999316 0.00000000 0.00000000 0.00000000 16.99999316 0.00000000 0.00000000 0.00000000 25.54738572
16.99999316 0.00000000 0.00000000 0.00000000 16.99999316 0.00000000 0.00000000 0.00000000 25.58908671
16.99999316 0.00000000 0.00000000 0.00000000 16.99999316 0.00000000 0.00000000 0.00000000 25.59439070
16.99999316 0.00000000 0.00000000 0.00000000 16.99999316 0.00000000 0.00000000 0.00000000 25.61198570
16.99999316 0.00000000 0.00000000 0.00000000 16.99999316 0.00000000 0.00000000 0.00000000 25.64319769
16.99999316 0.00000000 0.00000000 0.00000000 16.99999316 0.00000000 0.00000000 0.00000000 25.54238773
16.99999316 0.00000000 0.00000000 0.00000000 16.99999316 0.00000000 0.00000000 0.00000000 25.56149572
16.99999316 0.00000000 0.00000000 0.00000000 16.99999316 0.00000000 0.00000000 0.00000000 25.64889268
16.99999316 0.00000000 0.00000000 0.00000000 16.99999316 0.00000000 0.00000000 0.00000000 25.63709469
16.99999316 0.00000000 0.00000000 0.00000000 16.99999316 0.00000000 0.00000000 0.00000000 25.54928972
16.99999316 0.00000000 0.00000000 0.00000000 16.99999316 0.00000000 0.00000000 0.00000000 25.54269373
16.99999316 0.00000000 0.00000000 0.00000000 16.99999316 0.00000000 0.00000000 0.00000000 25.54509072
16.99999316 0.00000000 0.00000000 0.00000000 16.99999316 0.00000000 0.00000000 0.00000000 25.61128870
16.99999316 0.00000000 0.00000000 0.00000000 16.99999316 0.00000000 0.00000000 0.00000000 25.62458269
16.99999316 0.00000000 0.00000000 0.00000000 16.99999316 0.00000000 0.00000000 0.00000000 25.55078572
16.99999316 0.00000000 0.00000000 0.00000000 16.99999316 0.00000000 0.00000000 0.00000000 25.54849072
16.99999316 0.00000000 0.00000000 0.00000000 16.99999316 0.00000000 0.00000000 0.00000000 25.58169171
16.99999316 0.00000000 0.00000000 0.00000000 16.99999316 0.00000000 0.00000000 0.00000000 25.62349469
16.99999316 0.00000000 0.00000000 0.00000000 16.99999316 0.00000000 0.00000000 0.00000000 25.63369469
16.99999316 0.00000000 0.00000000 0.00000000 16.99999316 0.00000000 0.00000000 0.00000000 25.63988269
16.99999316 0.00000000 0.00000000 0.00000000 16.99999316 0.00000000 0.00000000 0.00000000 25.58079071
16.99999316 0.00000000 0.00000000 0.00000000 16.99999316 0.00000000 0.00000000 0.00000000 25.54699472
16.99999316 0.00000000 0.00000000 0.00000000 16.99999316 0.00000000 0.00000000 0.00000000 25.56518472
16.99999316 0.00000000 0.00000000 0.00000000 16.99999316 0.00000000 0.00000000 0.00000000 25.60758270
16.99999316 0.00000000 0.00000000 0.00000000 16.99999316 0.00000000 0.00000000 0.00000000 25.63179069
16.99999316 0.00000000 0.00000000 0.00000000 16.99999316 0.00000000 0.00000000 0.00000000 25.52389173
16.99999316 0.00000000 0.00000000 0.00000000 16.99999316 0.00000000 0.00000000 0.00000000 25.57108371
16.99999316 0.00000000 0.00000000 0.00000000 16.99999316 0.00000000 0.00000000 0.00000000 25.59418670
16.99999316 0.00000000 0.00000000 0.00000000 16.99999316 0.00000000 0.00000000 0.00000000 25.57749271
16.99999316 0.00000000 0.00000000 0.00000000 16.99999316 0.00000000 0.00000000 0.00000000 25.62398769
16.99999316 0.00000000 0.00000000 0.00000000 16.99999316 0.00000000 0.00000000 0.00000000 25.57548671
16.99999316 0.00000000 0.00000000 0.00000000 16.99999316 0.00000000 0.00000000 0.00000000 25.63279369
16.99999316 0.00000000 0.00000000 0.00000000 16.99999316 0.00000000 0.00000000 0.00000000 25.59959270
16.99999316 0.00000000 0.00000000 0.00000000 16.99999316 0.00000000 0.00000000 0.00000000 25.60008570
16.99999316 0.00000000 0.00000000 0.00000000 16.99999316 0.00000000 0.00000000 0.00000000 25.53769573
16.99999316 0.00000000 0.00000000 0.00000000 16.99999316 0.00000000 0.00000000 0.00000000 25.57288571
16.99999316 0.00000000 0.00000000 0.00000000 16.99999316 0.00000000 0.00000000 0.00000000 25.59729770
16.99999316 0.00000000 0.00000000 0.00000000 16.99999316 0.00000000 0.00000000 0.00000000 25.58439471
16.99999316 0.00000000 0.00000000 0.00000000 16.99999316 0.00000000 0.00000000 0.00000000 25.54728372
16.99999316 0.00000000 0.00000000 0.00000000 16.99999316 0.00000000 0.00000000 0.00000000 25.62509269
16.99999316 0.00000000 0.00000000 0.00000000 16.99999316 0.00000000 0.00000000 0.00000000 25.56118972
16.99999316 0.00000000 0.00000000 0.00000000 16.99999316 0.00000000 0.00000000 0.00000000 25.56409672
16.99999316 0.00000000 0.00000000 0.00000000 16.99999316 0.00000000 0.00000000 0.00000000 25.63469769
16.99999316 0.00000000 0.00000000 0.00000000 16.99999316 0.00000000 0.00000000 0.00000000 25.59838570
16.99999316 0.00000000 0.00000000 0.00000000 16.99999316 0.00000000 0.00000000 0.00000000 25.57868271
16.99999316 0.00000000 0.00000000 0.00000000 16.99999316 0.00000000 0.00000000 0.00000000 25.62888369
16.99999316 0.00000000 0.00000000 0.00000000 16.99999316 0.00000000 0.00000000 0.00000000 25.52999473
16.99999316 0.00000000 0.00000000 0.00000000 16.99999316 0.00000000 0.00000000 0.00000000 25.52708773
16.99999316 0.00000000 0.00000000 0.00000000 16.99999316 0.00000000 0.00000000 0.00000000 25.59119471
16.99999316 0.00000000 0.00000000 0.00000000 16.99999316 0.00000000 0.00000000 0.00000000 25.56618772
16.99999316 0.00000000 0.00000000 0.00000000 16.99999316 0.00000000 0.00000000 0.00000000 25.50228474