-67894.56540146
-67895.93146769
-67895.37840954
-67894.92478046
-67895.74075526
-67895.88447946
-67893.90220953
-67895.42690569
-67893.21750930
-67896.12454126
-67894.30958059
-67895.75879166
-67895.22936619
-67896.79786589
-67895.06889936
-67893.85489150
-67897.06038552
-67895.24583847
-67893.81600723
-67893.97195547
-67895.23282938
-67895.59712766
-67894.72005185
-67894.40407706
-67895.57274476
-67893.58626386
-67893.88473056
-67896.09475675
-67893.75670189
-67895.66979869
-67896.18770244
-67895.40485602
-67895.63710855
-67895.68145347
-67895.85970811
-67894.85776804
-67896.92872373
-67894.44121123
-67893.33010816
-67894.67601728
-67895.96837859
-67895.82724832
-67895.87718926
-67892.17577134
-67893.26743773
-67893.67893077
-67895.08187525
-67894.96543755
-67894.25758057
-67897.86362281
-67895.83407974
-67895.18929047
-67895.08178083
-67894.42120133
-67898.07863828
-67895.69772507
-67895.28792144
-67895.98921041
-67895.75406436
-67894.15949831
-67896.68930535
-67894.40943812
-67895.91520439
-67896.86144029
-67894.87747154
-67896.01957942
-67894.23626588
-67893.93485477
-67896.10117810
-67895.17416134
-67894.87408563
-67896.03774833
-67894.05333672
-67897.57386021
-67895.51771964
-67894.96049310
-67895.12855436
-67895.06253652
-67895.14357532
-67894.70890198
-67894.94090961
-67895.18853168
-67894.05780007
-67895.93309915
-67895.11477546
-67894.90826069
-67895.69048561
-67895.17363371
-67894.51633128
-67894.47086267
-67895.11209460
-67896.24169611
-67896.67504141
-67894.43980508
-67895.61738464
-67894.81536031
-67896.23297690
-67895.94369541
-67896.19054481
-67895.07344067
-67901.13427942
-67895.12860688
-67898.61255744
-67897.81822318
-67897.09455787
-67893.26760412
-67895.39310151
-67894.69113702
-67897.89988771
-67890.97339281
-67893.27955455
-67894.97524604
-67892.45150619
-67891.88750919
-67892.71225871
-67891.86264369
-67893.74452058
-67893.25912464
-67891.51194525
-67894.32286152
-67893.68797040
-67893.86663294
-67892.35891220
-67893.29666943
-67892.65205704
-67893.88200235
-67892.47881323
-67892.58431290
-67892.30951508
-67891.19228550
-67892.18337257
-67892.85322123
-67892.49052910
-67889.40156611
-67890.15734835
-67880.92077381
-67890.02145545
-67886.41963343
-67889.02421915
-67887.06331301
-67889.94450870
-67887.62746335
-67890.88333098
-67888.82948229
-67888.41518198
-67887.86910803
-67888.52718286
-67888.49709794
-67888.61905860
-67889.18286363
-67889.54487084
-67888.61184880
-67888.62512497
-67888.40793653
-67889.10618980
-67890.27038898
-67887.47268248
-67887.76256753
-67888.13271707
-67890.70266663
-67891.44180774
-67889.07503629
-67903.48346483
-67902.13975275
-67898.01239880
-67895.07381115
-67899.95905732
-67901.36813797
-67895.00826094
-67894.43924847
-67893.45949984
-67896.23986900
-67892.84783582
-67893.42095939
-67892.27191791
-67892.43717885
-67891.19890426
-67891.63907322
-67891.23062500
-67890.72721485
-67892.42025186
-67892.01906989
-67891.32461207
-67892.06325589
-67892.10049796
-67892.25733179
-67890.18040116
-67891.13311269
-67892.38953128
-67893.41250576
-67888.33518319
-67889.02026411
-67890.38332892
-67890.15039393
-67888.44129471
-67888.62214859
-67889.32789669
-67888.94476554
-67889.47409114
-67889.56258220
-67887.31886870
-67888.77888963
-67892.40012114
-67888.35742252
-67889.90276179
-67891.11450553
-67889.77231526
-67889.03877792
-67888.27292175
-67888.98189672
-67888.17510658
-67888.87855872
-67890.58974206
-67889.61958966
-67888.33471625
-67889.81952145
-67889.00948635
-67888.95711094
-67888.45740019
-67888.28491232
-67889.86756167
-67889.86268077
-67895.74069159
-67901.82921766
-67894.99947629
-67894.83127993
-67896.07614579
-67893.83105418
-67895.24989283
-67896.95708195
-67895.88468532
-67890.85646122
-67891.62681381
-67893.12233472
-67892.36132490
-67893.22762827
-67891.86738677
-67891.99032024
-67895.74069159
-67892.62571858
-67892.12506862
-67893.39053283
-67891.84592759
-67892.41720051
-67891.37114587
-67891.59423469
-67887.22617308
-67890.56839200
-67888.55209598
-67890.18829111
-67887.70941551
-67888.01021354
-67888.71548817
-67891.19430853
-67889.30867701
-67888.39475044
-67891.21181008
-67890.46807991
-67888.45599757
-67888.64757016
-67889.43863089
-67888.02817728
-67888.96886926
-67887.73489816
-67888.10641195
-67889.82196326
-67888.93625450
-67889.16819451
-67888.31574909
-67890.14713401
-67891.77751596
-67890.76705070
-67889.63121859
-67889.02979381
-67889.28716232
-67888.62461000
-67886.71469829
-67889.59133063
-67888.55816303
-67890.36357005
-67886.83378026
-67889.82348329
-67887.98418176
-67889.41831309
-67888.99572691
-67889.44300471
-67888.02896886
-67888.67348275
-67888.30259619
-67895.82678001
-67898.24762812
-67899.65454710
-67899.53999502
-67898.40093196
-67898.28401044
-67895.00885034
-67895.03153893
-67896.55030083
-67892.60602270
-67889.52776671
-67893.40712144
-67892.58985614
-67891.68273840
-67891.63389843
-67892.32602573
-67892.47430866
-67891.38783911
-67892.06321821
-67891.86805032
-67894.48324263
-67894.23380298
-67887.78021221
-67889.33086518
-67889.53300382
-67887.26410305
-67889.42942173
-67887.55515016
-67889.74110732
-67889.02546325
-67889.24203780
-67887.55301569
-67889.76373346
-67888.11056264
-67889.88876887
-67889.02921026
-67886.46229396
-67889.17345393
-67890.26404872
-67887.69148456
-67890.87166110
-67888.91864151
-67888.19803286
-67888.89257626
-67888.41813577
-67889.04749809
-67888.84400596
-67888.92448244
-67890.63126529
-67904.08097566
-67904.70550210
-67902.40304560
-67902.81898907
-67898.32574497
-67896.37165556
-67897.38525395
-67895.26383378
-67895.39502699
-67895.02362640
-67894.73503199
-67897.31276496
-67896.20598701
-67891.80377673
-67893.73045582
-67893.93010856
-67892.88733017
-67892.64295156
-67890.41761719
-67892.19890552
-67891.54299686
-67891.04287181
-67893.36034219
-67893.39397085
-67890.67107420
-67893.97410884
-67889.73769882
-67890.89032417
-67890.31322176
-67887.37025552
-67891.44732921
-67890.45814571
-67888.31601712
-67888.47327232
-67889.04319148
-67887.90366855
-67888.63294199
-67889.80981923
-67888.29025555
-67889.73560776
-67889.17793074
-67890.19399081
-67891.10519992
-67889.93589956
-67889.62461261
-67890.60650890
-67889.37829710
-67889.88717306
-67889.75479139
-67889.69828516
-67888.12132189
-67898.80397818
-67894.73070348
-67896.55181256
-67896.05294794
-67896.41854284
-67893.71644331
-67891.94302710
-67891.97711917
-67893.34499728
-67893.28179255
-67891.63664705
-67893.59614649
-67891.29970643
-67891.85458639
-67892.88366044
-67890.76926516
-67889.20119513
-67890.07259941
-67888.00611864
-67889.69188408
-67890.18920745
-67891.13690840
-67887.98268051
-67888.69602794
-67887.64043802
-67889.47627309
-67888.46803943
-67890.80654437
-67889.13334705
-67886.50351446
-67889.44423956
-67890.49272173
-67889.02794180
-67888.23358468
-67891.21992643
-67889.39463536
-67887.90807203
-67886.91663733
-67887.37333014
-67887.73271499
-67893.18975286
-67897.20484389
-67896.56892825
-67894.65074755
-67894.31847776
-67895.33156906
-67892.75982573
-67891.26480346
-67893.96228943
-67892.92141680
-67893.20000272
-67890.19005155
-67891.19793771
-67894.33800425
-67890.18713435
-67885.90062883
-67887.22387930
-67890.18269576
-67890.08205809
-67888.02142464
-67895.08207662
-67890.30944944
-67888.03312159
-67890.27139267
-67888.21990688
-67887.63063974
-67892.43078811
-67904.21896560
-67899.38925109
-67898.55587705
-67894.71080991
-67896.61539892
-67896.19344160
-67896.56472573
-67896.88761479
-67898.29590658
-67896.06803693
-67891.92966467
-67893.56330343
-67893.27861372
-67890.34033669
-67891.67266855
-67892.47622693
-67891.72184811
-67891.97638161
-67890.52698455
-67893.52876441
-67890.30884208
-67888.93916176
-67889.33281230
-67889.19738036
-67891.34283173
-67889.53142025
-67887.77379495
-67891.02176256
-67889.40114025
-67889.80815049
-67890.70549539
-67888.67198694
-67890.31137342
-67888.52125894
-67889.94916470
-67889.20476676
-67886.48458036
-67887.49706226
-67888.84004044
-67889.31337125
-67888.64861480
-67888.09220651
-67887.50554664
-67889.74692281
-67887.70133263
-67889.47079312
-67888.08232783
-67889.55747122
