   -68.00068364      9.78212664    -14.08382360      9.78212664   -103.31524468    -18.02648129    -14.08382360    -18.02648129     -7.96660729 
   -62.69638644     16.67161610    -15.78417941     16.67161610    -61.74120648    -49.81839285    -15.78417941    -49.81839285      1.13808676 
   -78.37895095      8.55597364     -8.87436696      8.55597364    -74.75468658    -41.39113140     -8.87436696    -41.39113140      4.78944843 
   -95.51122122     -0.54872040     -1.03647187     -0.54872040    -87.00944218    -15.89256862     -1.03647187    -15.89256862    -13.69091269 
   -50.88873635    -15.89934295     13.52155455    -15.89934295    -46.20767713     19.45586406     13.52155455     19.45586406     17.95873803 
   -79.86930266    -22.38237286     17.47776089    -22.38237286    -85.38360396     33.01806456     17.47776089     33.01806456     -3.60394139 
   -75.64212328    -18.81907742     13.92123978    -18.81907742    -70.75105996     33.56001063     13.92123978     33.56001063      0.54872040 
   -89.34658463    -13.50123157      1.82906800    -13.50123157    -74.63274872     18.33132595      1.82906800     18.33132595    -11.63151761 
   -80.58060688      0.98905159     -3.71233061      0.98905159    -68.36649724    -14.26673040     -3.71233061    -14.26673040      8.63726555 
   -57.43273519     11.23860671    -18.98843557     11.23860671    -59.48535595    -40.36143386    -18.98843557    -40.36143386      2.61488981 
   -82.18612212     28.43184591    -14.39544259     28.43184591    -90.96564852    -40.34788521    -14.39544259    -40.34788521     -9.23340624 
   -50.45517949     15.72321047    -12.64089218     15.72321047    -48.60578851    -18.95456394    -12.64089218    -18.95456394     -3.45490622 
   -75.94019362      5.22300529      4.90461197      5.22300529    -86.33878392     12.90509089      4.90461197     12.90509089     -3.70555628 
   -80.25543923      5.51430130     15.14061844      5.51430130    -71.42849255     32.53031309     15.14061844     32.53031309      1.47002873 
   -66.84904823    -11.59764598     16.35322278    -11.59764598    -53.48330318     33.95292154     16.35322278     33.95292154     -8.98953050 
  -129.89769961     -9.30114950     11.42828784     -9.30114950    -87.87655590     31.03318706     11.42828784     31.03318706    -16.39386874 
   -49.39161032    -23.96756512      1.00937456    -23.96756512    -37.56363725     -5.21623096      1.00937456     -5.21623096      4.52524972 
   -90.99952015     -7.70918290    -21.26460908     -7.70918290    -72.57335364    -37.06233714    -21.26460908    -37.06233714    -10.58149709 
   -73.91467017      0.36581360    -17.41679195      0.36581360    -52.71103002    -35.29423807    -17.41679195    -35.29423807    -14.03640332 
   -88.32366141     11.43506216    -16.18386464     11.43506216    -80.68222177    -25.15984649    -16.18386464    -25.15984649     -4.72847950 
   -47.45415311     29.59702997      0.34549062     29.59702997    -61.91056463      1.95100587      0.34549062      1.95100587    -10.41891327 
   -51.20035534     15.62836991     15.55385232     15.62836991    -70.50040990     22.68044320     15.55385232     22.68044320      8.35274387 
   -80.66867312      2.31681947     15.74353345      2.31681947    -83.35808051     42.42082894     15.74353345     42.42082894    -19.06295315 
   -71.87559807      8.96243320     17.43711493      8.96243320    -78.88025107     36.00554229     17.43711493     36.00554229     24.97693969 
   -79.42897147      4.20008207      5.35171748      4.20008207    -88.42527630     -0.19645545      5.35171748     -0.19645545    -30.43704638 
  -109.46633262     -7.14691385    -13.15574095     -7.14691385    -84.56391052    -29.75961379    -13.15574095    -29.75961379     -0.47420281 
   -62.07992278    -11.61119464    -24.78048423    -11.61119464    -49.82516718    -40.16497841    -24.78048423    -40.16497841     -0.13548652 
   -85.76974054     -6.70658267    -23.61530017     -6.70658267    -82.03708695    -32.08998191    -23.61530017    -32.08998191      9.97180776 
   -75.62857463     -2.58101818     -4.91816062     -2.58101818    -76.14342340     -2.73682767     -4.91816062     -2.73682767    -14.60544669 
   -64.11899488      4.74202815     17.83002583      4.74202815    -69.03038118     19.50328434     17.83002583     19.50328434      4.34911724 
   -50.04194561     13.48768292     24.08272866     13.48768292    -79.98446620     31.54126151     24.08272866     31.54126151    -14.46318585 
   -64.80320180     12.70863544     29.87477733     12.70863544    -90.89113094     31.57513314     29.87477733     31.57513314     -7.92596133 
   -45.50992156     14.31415068     15.27610496     14.31415068    -73.00691049     27.03633477     15.27610496     27.03633477     -5.96140681 
   -58.68598549     14.59867237    -17.94518938     14.59867237   -113.12446862     -7.56692206    -17.94518938     -7.56692206     -4.07814421 
   -76.75311273     17.82325151    -27.61215247     17.82325151   -109.68988538    -36.39167887    -27.61215247    -36.39167887     -8.60339392 
   -56.79594856     -6.74722862    -20.48556160     -6.74722862    -48.57869121    -44.76474571    -20.48556160    -44.76474571     -9.84986990 
  -119.74298505    -13.05412606     -7.20788278    -13.05412606    -74.59887709    -13.19638690     -7.20788278    -13.19638690      6.02915007 
   -93.84473704    -18.79875444      8.44758443    -18.79875444    -63.12316897     20.05877906      8.44758443     20.05877906      3.02134936 
   -39.62303234     -9.32824680     25.87115071     -9.32824680    -40.69337583     24.19111788     25.87115071     24.19111788     25.15307216 
   -96.80511747      5.01977551     27.18536994      5.01977551    -90.98597150     31.25673982     27.18536994     31.25673982    -15.17449007 
   -65.08772349      8.35274387      8.83372101      8.35274387    -77.84377921     18.80552877      8.83372101     18.80552877      4.85719169 
   -48.54481958     16.73935936     -9.80244961     16.73935936    -74.19919186      4.29492264     -9.80244961      4.29492264     -1.65970985 
   -82.95162095     13.31155044    -32.59128203     13.31155044   -103.60654070    -25.01081132    -32.59128203    -25.01081132     -3.80039684 
   -60.78602653     13.14219229    -30.87737757     13.14219229    -81.67804768    -36.90652764    -30.87737757    -36.90652764     -5.98850412 
   -75.90632199     10.79150120    -13.45381129     10.79150120    -80.59415553    -26.04050886    -13.45381129    -26.04050886      6.55754750 
  -115.70548680      7.29594902     17.85712314      7.29594902    -92.91665439    -10.71020929     17.85712314    -10.71020929    -17.62002173 
   -63.33994740    -16.88839453     37.61783186    -16.88839453    -47.27124631     17.75550825     37.61783186     17.75550825     22.13172280 
   -76.70569245    -21.31880369     38.58656047    -21.31880369    -65.09449781     32.35418062     38.58656047     32.35418062      6.51012721 
   -74.93759338    -14.24640742     15.72998480    -14.24640742    -73.18304297     25.13274918     15.72998480     25.13274918     -3.62426437 
   -55.68495910     -8.70500881     -6.04947305     -8.70500881    -64.74900719      9.17243730     -6.04947305      9.17243730     12.82379898 
   -74.72758928     -8.29177493    -30.28801121     -8.29177493    -98.66805710    -19.25940860    -30.28801121    -19.25940860     -3.98330364 
   -64.40351657     -1.10421513    -34.00711614     -1.10421513    -92.93020304    -36.83201005    -34.00711614    -36.83201005     -6.76077727 
   -57.91371233     -3.99685230    -23.35787579     -3.99685230    -66.34774811    -29.38702586    -23.35787579    -29.38702586     -0.58936636 
   -66.04290344     -3.38038864      7.58047071     -3.38038864    -67.80422818     -5.78527434      7.58047071     -5.78527434      8.07499650 
   -84.20487125     -5.54139861     28.47926619     -5.54139861    -71.57075340     23.33077849     28.47926619     23.33077849     -2.41843436 
   -76.07568014     -0.16258382     43.04406693     -0.16258382    -47.55576799     37.19104933     43.04406693     37.19104933      1.24647597 
   -97.15060809     -5.81237164     26.27083594     -5.81237164    -71.90269537     27.43602000     26.27083594     27.43602000     -1.82906800 
   -71.59107638     -6.04269873      4.43040915     -6.04269873    -65.79225338     15.95353755      4.43040915     15.95353755      5.65656215 
   -65.48063439     -1.79519637    -15.52675502     -1.79519637    -95.07766436     -9.37566708    -15.52675502     -9.37566708     -9.99213074 
   -54.09299251      1.74777609    -31.48706690      1.74777609   -106.62789006    -30.91802352    -31.48706690    -30.91802352    -11.15054047 
   -20.93266711      1.98487750    -30.11865306      1.98487750    -75.47276513    -40.13110678    -30.11865306    -40.13110678      9.28760084 
   -75.50663676     -4.33556859     -3.34651701     -4.33556859   -107.68468490    -19.93006687     -3.34651701    -19.93006687    -14.60544669 
   -71.52333312     -5.54817293     15.78417941     -5.54817293    -61.36184423      2.87908852     15.78417941      2.87908852      1.72067878 
   -78.88025107     -9.14534000     36.10715718     -9.14534000    -68.90166898     24.84822749     36.10715718     24.84822749    -11.19118643 
  -103.42363390     -2.34391677     30.31510851     -2.34391677    -83.14130208     34.91487582     30.31510851     34.91487582     -9.12501702 
   -69.77555703     -0.12193787      9.46373332     -0.12193787    -35.18584885     30.10510441      9.46373332     30.10510441     17.95196370 
   -79.54413501     11.74668115    -18.90036933     11.74668115    -61.24668069     21.08847660    -18.90036933     21.08847660    -13.13541797 
   -96.38510926     12.44443672    -34.42712435     12.44443672    -73.96886478    -11.74668115    -34.42712435    -11.74668115     -2.83166824 
   -49.29676976      9.11824270    -38.04461440      9.11824270    -50.89551068    -34.50841626    -38.04461440    -34.50841626      4.36944022 
   -82.33515729     -5.04009849    -17.80292853     -5.04009849    -97.83481501    -25.18016946    -17.80292853    -25.18016946    -14.61899535 
   -50.97002826     -3.06199532      7.49240447     -3.06199532    -84.59778215     -7.65498830      7.49240447     -7.65498830      1.36841384 
   -52.47392862    -10.23600647     24.91597075    -10.23600647    -83.01936421     11.42828784     24.91597075     11.42828784      1.23970164 
   -85.60715672      1.26679895     27.90344849      1.26679895    -76.19761801     21.10202526     27.90344849     21.10202526     -5.71753108 
   -66.65936710     -3.59716707     18.58875034     -3.59716707    -56.09819299     17.96551235     18.58875034     17.96551235    -10.96085935 
  -104.22300436      7.18078548     -1.84939098      7.18078548    -69.28780556     12.80347600     -1.84939098     12.80347600      5.67688513 
   -77.46441695     -4.96558090    -28.37765130     -4.96558090    -49.73710094    -15.06610086    -28.37765130    -15.06610086    -11.33344727 
   -86.65040291      5.55494726    -36.10715718      5.55494726    -55.92206051    -27.27343617    -36.10715718    -27.27343617      9.99213074 
   -85.88490408      5.47365535    -17.49808386      5.47365535    -89.38723058    -24.73306395    -17.49808386    -24.73306395    -23.44594203 
   -46.65478265      4.68105921      2.38456273      4.68105921    -78.26378741     -5.22977961      2.38456273     -5.22977961     17.71486229 
   -53.97782897      4.48460376     23.77788400      4.48460376    -93.21472473      9.20630893     23.77788400      9.20630893     -5.54817293 
   -85.46489587      4.72847950     30.97221813      4.72847950   -104.02654891     31.95449539     30.97221813     31.95449539     -2.43875733 
   -56.07109568    -12.82379898     28.99411496    -12.82379898    -49.73710094     28.28281074     28.99411496     28.28281074    -12.86444493 
  -100.94423061    -24.99726266      7.10626790    -24.99726266    -79.20541872     26.96859151      7.10626790     26.96859151      7.46530717 
   -91.39243106    -23.32400416    -15.18126440    -23.32400416    -73.78595798      2.20165593    -15.18126440      2.20165593    -13.08799769 
   -93.68215322     -7.13336520    -17.59969875     -7.13336520    -73.23723758    -13.89414247    -17.59969875    -13.89414247      0.18290680 
   -82.87032904      0.38613658    -25.28855868      0.38613658    -47.26447198    -28.29635939    -25.28855868    -28.29635939    -16.21096194 
   -94.37990879      3.71910493    -22.18591740      3.71910493    -64.61352067    -19.48296136    -22.18591740    -19.48296136      0.84679074 
   -89.23819541      9.24018056      8.92856157      9.24018056    -89.76659283     -5.14171338      8.92856157     -5.14171338    -15.28287929 
   -66.95743744     13.88736815     17.29485409     13.88736815    -66.63226980      5.06042147     17.29485409      5.06042147      2.55392087 
   -90.02401722     19.38134647     32.65902528     19.38134647    -87.05008814     19.91651822     32.65902528     19.91651822    -25.44436817 
   -77.03086009      0.72485287     16.57677554      0.72485287    -81.76611392     20.61427379     16.57677554     20.61427379      0.06096893 
   -63.25188116     -0.77227316     -1.27357327     -0.77227316    -65.80580204      0.97550293     -1.27357327      0.97550293     -9.68051175 
   -79.84897968     -6.69980834    -20.92589278     -6.69980834    -76.61762621    -15.45901176    -20.92589278    -15.45901176     -5.62946484 
   -82.89742635     -8.91501292    -32.72676854     -8.91501292    -79.12412680    -33.26194029    -32.72676854    -33.26194029      5.18913366 
   -82.05063560    -12.25475560    -13.27767881    -12.25475560    -81.09545565    -16.40741739    -13.27767881    -16.40741739     -0.18968113 
   -81.76611392     -1.51067468      3.42780892     -1.51067468    -83.06678449      1.77487339      3.42780892      1.77487339     -2.96715476 
   -62.31024986     -7.51950178     10.95408502     -7.51950178    -85.28876340     11.38086755     10.95408502     11.38086755      0.61646366 
   -75.37115024      1.97132884     29.25831367      1.97132884    -65.98193451     15.54707800     29.25831367     15.54707800    -12.64766650 
   -98.07191642      3.46845487     24.02175973      3.46845487    -78.58895506     22.72786348     24.02175973     22.72786348    -16.90194318 
   -65.10804647      5.61591619     11.25892969      5.61591619    -30.36930312     10.50697951     11.25892969     10.50697951     13.58252348 
   -27.08005646     -6.15178666      0.02710038     -6.15178666      0.56233292     -7.83201032      0.02710038     -7.83201032     11.65993925 
   -86.62330560      5.55494726    -36.10038285      5.55494726    -55.90173753    -27.28021050    -36.10038285    -27.28021050      9.98535641 
   -27.16768205     -6.84092914     22.71972614     -6.84092914    -14.53359453    -17.98785815     22.71972614    -17.98785815     65.77972480 
   -14.33312613     -1.51730636     -3.84068172     -1.51730636    -30.33935346     21.37098910     -3.84068172     21.37098910     24.85943899 
   -30.35919191      0.00677207      2.00453286      0.00677207    -25.43589668      2.09934184      2.00453286      2.09934184     18.73831898 
   -75.90632199     10.79150120    -13.45381129     10.79150120    -80.58738120    -26.04050886    -13.45381129    -26.04050886      6.56432182 
   -32.66715750      9.59166228     23.48840376      9.59166228    -42.61080739    -43.01017794     23.48840376    -43.01017794     28.74791088 
     0.38641034      2.29134551     28.99433355      2.29134551    -19.36797076     -9.57890889     28.99433355     -9.57890889     14.37175289 
   -33.94171998     -9.68987927      7.74918917     -9.68987927    -21.66651577     17.97513319      7.74918917     17.97513319    -12.43127369 
   -24.57677313     22.63257967     12.26128979     22.63257967    -31.06645027    -48.46257855     12.26128979    -48.46257855     26.65645046 
   -35.89562997      9.44122796      4.53774945      9.44122796    -28.00536414     33.35584483      4.53774945     33.35584483     34.38530441 
   -47.67266359      3.22423812    -14.92903532      3.22423812    -33.41421561     36.34041491    -14.92903532     36.34041491     32.39140058 
   -25.19059407      4.07195994     -3.15729339      4.07195994    -12.48011681     37.08125911     -3.15729339     37.08125911     38.97156996 
   -35.96402147     -7.71867730    -11.19513161     -7.71867730    -65.13777546      6.89191819    -11.19513161      6.89191819     15.04430519 
   -36.79655209      1.60574164    -22.83269758      1.60574164    -29.93996754     -2.64235966    -22.83269758     -2.64235966     18.38133784 
   -45.53274253      0.10841129     11.13248452      0.10841129    -33.73623885     -2.53411394     11.13248452     -2.53411394      6.66051874 
   -30.67835306     -5.12886777     14.37031511     -5.12886777    -11.06399084     11.30112476     14.37031511     11.30112476     27.76499356 
   -29.63382636     -1.58607396     -8.83185630     -1.58607396    -31.00977941      8.62851348     -8.83185630      8.62851348     17.31125172 
   -21.63576039      4.79740631    -25.93851888      4.79740631    -15.31375461      8.67327695    -25.93851888      8.67327695     12.28488368 
   -44.99769109     -7.11131482    -14.73058069     -7.11131482     -9.61043402      3.67079298    -14.73058069      3.67079298     27.28035818 
   -12.14561939    -11.68525031    -12.45704553    -11.68525031     -5.78169396     -0.06770133    -12.45704553     -0.06770133     47.46540553 
    -5.41222216     16.48082688    -22.61196577     16.48082688     -0.94273043    -44.05738742    -22.61196577    -44.05738742     22.89681957 
   -45.63632791      4.15984343      7.85221260      4.15984343     -1.10432326    -37.09306641      7.85221260    -37.09306641     27.24900696 
   -29.68230714      4.46932680     26.79558391      4.46932680    -23.12774733     -1.22261219     26.79558391     -1.22261219    -27.08765237 
   -50.01883263     10.46211993      4.31909942     10.46211993    -33.61710346    -17.92053337      4.31909942    -17.92053337     -2.83419710 
   -26.65803815      2.00681060      7.47130164      2.00681060    -17.81722387     -2.56275138      7.47130164     -2.56275138      6.10178900 
   -16.91538056     -1.17778160     -8.40692383     -1.17778160    -18.51283147     -0.75811229     -8.40692383     -0.75811229     37.81085066 
   -13.46293814    -11.26782001     12.79692706    -11.26782001     -2.54171573     -0.72717536     12.79692706     -0.72717536    -32.25396487 
   -23.67579922     -8.66667064      6.98619032     -8.66667064      0.89444920     -8.61923772      6.98619032     -8.61923772     34.83608580 
     3.97945026     -5.52663890      7.20895319     -5.52663890    -18.55950742      0.68914079      7.20895319      0.68914079     68.70463450 
   -12.44814131     -1.53145342     -4.44528073     -1.53145342    -14.92150635      2.16165328     -4.44528073      2.16165328     17.14414672 
   -19.45592978    -10.40177798      4.76070958    -10.40177798    -12.62299099     -3.40631141      4.76070958     -3.40631141     22.28662197 
    -1.94934755    -16.31901717     15.72338320    -16.31901717     -6.16616534      6.69411364     15.72338320      6.69411364     46.85879547 
   -43.29471699      5.97495547    -13.33187342      5.97495547    -43.42342918    -36.32393561    -13.33187342    -36.32393561     30.43027206 
   -21.78196540      2.93948165     -9.40092288      2.93948165    -16.53966403    -29.64541747     -9.40092288    -29.64541747     30.69523234 
   -10.03805669    -22.25712166     22.14874857    -22.25712166    -24.79711576    -49.03204616     22.14874857    -49.03204616     60.07255385 
   -22.22064325      0.56211929     15.56325456      0.56211929    -37.21500600    -12.19053882     15.56325456    -12.19053882     25.68140177 
   -25.95108247      8.03860514      7.99119972      8.03860514     20.05926573      9.57589525      7.99119972      9.57589525     34.34184218 
   -18.57170029      3.17094335     10.14295342      3.17094335     -1.04343008    -11.60646574     10.14295342    -11.60646574     16.85749373 
   -16.98568374     -8.79760892     19.26127773     -8.79760892    -33.71400863      9.59000326     19.26127773      9.59000326     31.95990493 
   -43.05356790     -5.62893564      5.18187216     -5.62893564    -46.39977031     20.61910961      5.18187216     20.61910961      7.97263207 
    17.05668366    -27.00077087     -4.03047132    -27.00077087    -25.78146863     15.83738141     -4.03047132     15.83738141     33.04986480 
    18.62174665     12.52513989    -15.00442664     12.52513989    -46.67968576     15.15345480    -15.00442664     15.15345480     39.93954828 
   -36.89541727     19.23682487     10.68863016     19.23682487    -29.06521673      3.37999141     10.68863016      3.37999141     19.74483961 
   -34.41128420      4.72139076     17.36821509      4.72139076    -21.42576612    -10.07275189     17.36821509    -10.07275189     44.68725233 
   -44.01498444      1.82266484      9.83154902      1.82266484    -57.82387273      5.32570471      9.83154902      5.32570471     29.29815159 
    -5.99720407     20.16009278     17.59179861     20.16009278    -15.28101150     18.77090992     17.59179861     18.77090992     33.59789580 
    -0.14901007      6.31260836    -13.45154529      6.31260836    -40.02952298      6.08232007    -13.45154529      6.08232007     36.40586904 
    -5.97391403     16.85400633    -23.48342902     16.85400633    -47.70346057     -3.91953636    -23.48342902     -3.91953636     68.71352700 
    -1.76774586     22.59463675     12.19812374     22.59463675    -20.52888010     -5.49288082     12.19812374     -5.49288082     34.54893348 
   -26.07135799     17.33583036     29.97935719     17.33583036      1.81201347     13.74560964     29.97935719     13.74560964     57.01081186 
   -36.46305602    -14.15680177     18.77212187    -14.15680177    -28.44875201     19.64382948     18.77212187     19.64382948     65.33752570 
   -22.44745509    -12.29941934     22.03476831    -12.29941934    -36.24878372     18.25969901     22.03476831     18.25969901     35.72785122 
   -11.71962079      2.27355230      3.85015256      2.27355230    -16.09756227     17.15314012      3.85015256     17.15314012     60.87165623 
    -3.90426984     -3.52402791     -2.70922377     -3.52402791    -20.90651624      5.84621971     -2.70922377      5.84621971    -10.13073148 
   -20.47226172     11.50546539     -7.54134044     11.50546539    -26.91396477     12.25892065     -7.54134044     12.25892065     -9.79491832 
   -34.23616004    -14.06622883     -0.20278081    -14.06622883    -13.43084896     12.41694491     -0.20278081     12.41694491     54.10867939 
   -40.86932522     33.71038175      2.62244837     33.71038175    -30.40677796     12.96919920      2.62244837     12.96919920    -82.87617999 
   -57.67434915     21.24915790    -21.70328663     21.24915790    -16.64009016     24.22471781    -21.70328663     24.22471781     10.58052169 
   -46.19821751     -9.55216086    -10.02093689     -9.55216086    -33.59561553    -18.32302833    -10.02093689    -18.32302833    -28.88067980 
   -33.04865663      0.84010525     -4.61380385      0.84010525    -49.99303758     -9.20050753     -4.61380385     -9.20050753     16.80210505 
   -26.06269488      9.01987619     -0.84095086      9.01987619     -2.59745307      6.98531765     -0.84095086      6.98531765     28.00230735 
   -23.02601442      7.00821240    -16.12635129      7.00821240    -42.52417748    -21.84554108    -16.12635129    -21.84554108    -14.82376002 
   -22.66607768    -26.08058414     19.09544070    -26.08058414     -9.25921831    -43.43143605     19.09544070    -43.43143605    -24.94015256 
   -47.65229702     -4.40128996     12.74129227     -4.40128996    -46.17613022    -11.55763778     12.74129227    -11.55763778    -71.75395132 
   -65.10127214      5.61591619     11.25892969      5.61591619    -30.36252880     10.50697951     11.25892969     10.50697951     13.58252348 
   -29.94756022     -5.90400575     -4.70284596     -5.90400575    -31.28444428      6.57584089     -4.70284596      6.57584089     -9.62285076 
   -59.58694471     29.93936910     -8.00057030     29.93936910    -32.00228120      7.58663070     -8.00057030      7.58663070    -15.72970480 
   -18.30487930     19.83595657      7.47165705     19.83595657     -7.28112299    -34.37778819      7.47165705    -34.37778819    -59.16763031 
   -40.02892766      7.79925474      1.69844398      7.79925474     -8.28161283     16.24391820      1.69844398     16.24391820    -27.04602190 
   -13.23588007    -12.20831303     12.81396513    -12.20831303    -32.96380620    -11.73876253     12.81396513    -11.73876253    -62.65436906 
   -35.33042521     -8.46790295     -5.69955006     -8.46790295    -41.33530831     25.19336831     -5.69955006     25.19336831    -27.55461048 
   -39.27049645     -9.88566031     15.38298553     -9.88566031    -45.08078819     14.78426694     15.38298553     14.78426694    -63.87919112 
   -34.63889223     -9.45066588    -12.80412797     -9.45066588    -57.19177160     13.67806051    -12.80412797     13.67806051     27.49161445 
     1.59998567     -9.00757888     -3.92166699     -9.00757888    -18.24664504      7.74801569     -3.92166699      7.74801569    -57.06161645 
    -2.88115226      5.39622870     23.65934443      5.39622870    -12.33133167    -12.85332866     23.65934443    -12.85332866      3.33535744 
   -42.07276750     -3.48338567     21.31532674     -3.48338567    -18.55311077     -8.97380018     21.31532674     -8.97380018    -58.44876223 
   -44.34419953    -28.99793421     32.87517085    -28.99793421    -23.82602589      0.16945964     32.87517085      0.16945964      3.02993843 
   -22.17792311     -8.03204122      7.19155759     -8.03204122    -52.15065416     20.93075384      7.19155759     20.93075384      0.04744666 
   -45.35399423      0.62594772     -0.74161197      0.62594772    -47.49038100     25.50736939     -0.74161197     25.50736939    -76.82827826 
   -24.52952384      3.17168649      9.65798955      3.17168649    -17.02229165    -27.78288466      9.65798955    -27.78288466    -86.84023160 
   -31.63440404      2.05321084      4.77949410      2.05321084    -51.57502451      1.25096289      4.77949410      1.25096289    -39.29655176 
   -32.48580255      5.01609028    -14.23375009      5.01609028    -29.71643200     -5.51837808    -14.23375009     -5.51837808     -1.18784276 
   -65.53728734      8.50022622     25.03221573      8.50022622    -34.22495240      8.86006008     25.03221573      8.86006008    -29.20764634 
   -29.82008344      6.56557848     15.39889555      6.56557848    -16.60745084      3.87009280     15.39889555      3.87009280    -15.24952355 
   -71.32716250     -8.80169822    -12.04694094     -8.80169822    -29.89577591     -1.73852289    -12.04694094     -1.73852289   -117.71504375 
   -29.86205613    -16.06546013      2.02431591    -16.06546013     -6.56204418    -13.86452606      2.02431591    -13.86452606    -20.56922338 
   -53.19904871     -1.35694551     -0.97021604     -1.35694551    -32.04426822     21.78576016     -0.97021604     21.78576016     -6.54047736 
   -67.67697254     22.62237788     16.97866848     22.62237788    -56.86495646     16.94471114     16.97866848     16.94471114    -31.85198206 
   -52.51173299      6.90371645      1.48130924      6.90371645    -28.38949540      2.99659346      1.48130924      2.99659346    -37.33850579 
   -57.71704680      3.08349485    -24.62720778      3.08349485    -69.77935266     42.29278071    -24.62720778     42.29278071    -27.09264529 
   -46.50061242     19.47687364     21.08244549     19.47687364    -57.33991601      9.66730389     21.08244549      9.66730389     10.73091056 
   -25.27996467     19.10403337      1.69482198     19.10403337     -8.22327625    -18.79218612      1.69482198    -18.79218612     18.71083467 
   -29.84345662     -9.56973836    -14.23574990     -9.56973836    -40.10596525    -14.66363742    -14.23574990    -14.66363742    -25.30649052 
   -12.79125166      7.80552418      2.82660779      7.80552418    -30.03696476      1.55293151      2.82660779      1.55293151    -79.54006224 
   -30.13059828     23.12774733     -1.74561852     23.12774733    -61.58569310    -19.43274159     -1.74561852    -19.43274159    -27.90951946 
   -38.69805870      3.72960538     -7.29587037      3.72960538    -57.69318388    -11.59036123     -7.29587037    -11.59036123    -93.84585497 
   -19.21359792     12.12343293      7.09697590     12.12343293    -23.62026146      4.68591115      7.09697590      4.68591115    -92.11084658 
   -21.96556622    -23.55825615      8.64796745    -23.55825615    -19.01061810    -11.40637086      8.64796745    -11.40637086     10.38298286 
   -18.06408570     -7.26911309     21.97038479     -7.26911309    -47.03863460    -16.20944283     21.97038479    -16.20944283    -36.34556544 
   -35.76183545      3.30119722     22.61830590      3.30119722    -62.94055812      9.52242250     22.61830590      9.52242250    -71.01317648 
   -31.74347091     -5.13177038     -0.41516975     -5.13177038    -30.83826473     -4.07683085     -0.41516975     -4.07683085    -71.76991868 
   -35.27313148     23.88284944      0.17691000     23.88284944    -16.96975114     -9.00880133      0.17691000     -9.00880133    -61.05436126 
   -51.21147505      1.34498900     13.44309711      1.34498900     -2.18730534      2.51336328     13.44309711      2.51336328    -25.62951258 
   -55.58314839      5.76266465     -7.12499672      5.76266465    -26.47692375    -11.40953107     -7.12499672    -11.40953107    -83.21124273 
   -34.33246907    -15.11363897     21.93520034    -15.11363897      7.96529621    -10.10299110     21.93520034    -10.10299110    -57.75180153 