19.99999177 0.00000000 0.00000000 0.00000000 19.99999177 0.00000000 0.00000000 0.00000000 25.52998949
19.99999177 0.00000000 0.00000000 0.00000000 19.99999177 0.00000000 0.00000000 0.00000000 25.52998949
19.99999177 0.00000000 0.00000000 0.00000000 19.99999177 0.00000000 0.00000000 0.00000000 25.52998949
19.99999177 0.00000000 0.00000000 0.00000000 19.99999177 0.00000000 0.00000000 0.00000000 25.52998949
19.99999177 0.00000000 0.00000000 0.00000000 19.99999177 0.00000000 0.00000000 0.00000000 25.52998949
19.99999177 0.00000000 0.00000000 0.00000000 19.99999177 0.00000000 0.00000000 0.00000000 25.52998949
19.99999177 0.00000000 0.00000000 0.00000000 19.99999177 0.00000000 0.00000000 0.00000000 25.52998949
19.99999177 0.00000000 0.00000000 0.00000000 19.99999177 0.00000000 0.00000000 0.00000000 25.52998949
19.99999177 0.00000000 0.00000000 0.00000000 19.99999177 0.00000000 0.00000000 0.00000000 25.52998949
19.99999177 0.00000000 0.00000000 0.00000000 19.99999177 0.00000000 0.00000000 0.00000000 25.52998949
19.99999177 0.00000000 0.00000000 0.00000000 19.99999177 0.00000000 0.00000000 0.00000000 25.52998949
19.99999177 0.00000000 0.00000000 0.00000000 19.99999177 0.00000000 0.00000000 0.00000000 25.52998949
19.99999177 0.00000000 0.00000000 0.00000000 19.99999177 0.00000000 0.00000000 0.00000000 25.52998949
19.99999177 0.00000000 0.00000000 0.00000000 19.99999177 0.00000000 0.00000000 0.00000000 25.52998949
19.99999177 0.00000000 0.00000000 0.00000000 19.99999177 0.00000000 0.00000000 0.00000000 25.52998949
19.99999177 0.00000000 0.00000000 0.00000000 19.99999177 0.00000000 0.00000000 0.00000000 25.52998949
19.99999177 0.00000000 0.00000000 0.00000000 19.99999177 0.00000000 0.00000000 0.00000000 25.52998949
19.99999177 0.00000000 0.00000000 0.00000000 19.99999177 0.00000000 0.00000000 0.00000000 25.52998949
19.99999177 0.00000000 0.00000000 0.00000000 19.99999177 0.00000000 0.00000000 0.00000000 25.52998949
19.99999177 0.00000000 0.00000000 0.00000000 19.99999177 0.00000000 0.00000000 0.00000000 25.52998949
19.99999177 0.00000000 0.00000000 0.00000000 19.99999177 0.00000000 0.00000000 0.00000000 25.52998949
19.99999177 0.00000000 0.00000000 0.00000000 19.99999177 0.00000000 0.00000000 0.00000000 25.52998949
19.99999177 0.00000000 0.00000000 0.00000000 19.99999177 0.00000000 0.00000000 0.00000000 25.52998949
19.99999177 0.00000000 0.00000000 0.00000000 19.99999177 0.00000000 0.00000000 0.00000000 25.52998949
19.99999177 0.00000000 0.00000000 0.00000000 19.99999177 0.00000000 0.00000000 0.00000000 25.52998949
19.99999177 0.00000000 0.00000000 0.00000000 19.99999177 0.00000000 0.00000000 0.00000000 25.52998949
19.99999177 0.00000000 0.00000000 0.00000000 19.99999177 0.00000000 0.00000000 0.00000000 25.52998949
19.99999177 0.00000000 0.00000000 0.00000000 19.99999177 0.00000000 0.00000000 0.00000000 25.52998949
19.99999177 0.00000000 0.00000000 0.00000000 19.99999177 0.00000000 0.00000000 0.00000000 25.52998949
19.99999177 0.00000000 0.00000000 0.00000000 19.99999177 0.00000000 0.00000000 0.00000000 25.52998949
19.99999177 0.00000000 0.00000000 0.00000000 19.99999177 0.00000000 0.00000000 0.00000000 25.52998949
19.99999177 0.00000000 0.00000000 0.00000000 19.99999177 0.00000000 0.00000000 0.00000000 25.52998949
19.99999177 0.00000000 0.00000000 0.00000000 19.99999177 0.00000000 0.00000000 0.00000000 25.52998949
19.99999177 0.00000000 0.00000000 0.00000000 19.99999177 0.00000000 0.00000000 0.00000000 25.52998949
19.99999177 0.00000000 0.00000000 0.00000000 19.99999177 0.00000000 0.00000000 0.00000000 25.52998949
19.99999177 0.00000000 0.00000000 0.00000000 19.99999177 0.00000000 0.00000000 0.00000000 25.52998949
19.99999177 0.00000000 0.00000000 0.00000000 19.99999177 0.00000000 0.00000000 0.00000000 25.52998949
19.99999177 0.00000000 0.00000000 0.00000000 19.99999177 0.00000000 0.00000000 0.00000000 25.52998949
19.99999177 0.00000000 0.00000000 0.00000000 19.99999177 0.00000000 0.00000000 0.00000000 25.52998949
19.99999177 0.00000000 0.00000000 0.00000000 19.99999177 0.00000000 0.00000000 0.00000000 25.52998949
19.99999177 0.00000000 0.00000000 0.00000000 19.99999177 0.00000000 0.00000000 0.00000000 25.52998949
19.99999177 0.00000000 0.00000000 0.00000000 19.99999177 0.00000000 0.00000000 0.00000000 25.52998949
19.99999177 0.00000000 0.00000000 0.00000000 19.99999177 0.00000000 0.00000000 0.00000000 25.52998949
19.99999177 0.00000000 0.00000000 0.00000000 19.99999177 0.00000000 0.00000000 0.00000000 25.52998949
19.99999177 0.00000000 0.00000000 0.00000000 19.99999177 0.00000000 0.00000000 0.00000000 25.52998949
19.99999177 0.00000000 0.00000000 0.00000000 19.99999177 0.00000000 0.00000000 0.00000000 25.52998949
19.99999177 0.00000000 0.00000000 0.00000000 19.99999177 0.00000000 0.00000000 0.00000000 25.52998949
19.99999177 0.00000000 0.00000000 0.00000000 19.99999177 0.00000000 0.00000000 0.00000000 25.52998949
19.99999177 0.00000000 0.00000000 0.00000000 19.99999177 0.00000000 0.00000000 0.00000000 25.52998949
19.99999177 0.00000000 0.00000000 0.00000000 19.99999177 0.00000000 0.00000000 0.00000000 25.52998949
19.99999177 0.00000000 0.00000000 0.00000000 19.99999177 0.00000000 0.00000000 0.00000000 25.52998949
19.99999177 0.00000000 0.00000000 0.00000000 19.99999177 0.00000000 0.00000000 0.00000000 25.52998949
19.99999177 0.00000000 0.00000000 0.00000000 19.99999177 0.00000000 0.00000000 0.00000000 25.52998949
19.99999177 0.00000000 0.00000000 0.00000000 19.99999177 0.00000000 0.00000000 0.00000000 25.52998949
19.99999177 0.00000000 0.00000000 0.00000000 19.99999177 0.00000000 0.00000000 0.00000000 25.52998949
19.99999177 0.00000000 0.00000000 0.00000000 19.99999177 0.00000000 0.00000000 0.00000000 25.52998949
19.99999177 0.00000000 0.00000000 0.00000000 19.99999177 0.00000000 0.00000000 0.00000000 25.52998949
19.99999177 0.00000000 0.00000000 0.00000000 19.99999177 0.00000000 0.00000000 0.00000000 25.52998949
19.99999177 0.00000000 0.00000000 0.00000000 19.99999177 0.00000000 0.00000000 0.00000000 25.52998949
19.99999177 0.00000000 0.00000000 0.00000000 19.99999177 0.00000000 0.00000000 0.00000000 25.52998949
19.99999177 0.00000000 0.00000000 0.00000000 19.99999177 0.00000000 0.00000000 0.00000000 25.52998949
19.99999177 0.00000000 0.00000000 0.00000000 19.99999177 0.00000000 0.00000000 0.00000000 25.52998949
19.99999177 0.00000000 0.00000000 0.00000000 19.99999177 0.00000000 0.00000000 0.00000000 25.52998949
19.99999177 0.00000000 0.00000000 0.00000000 19.99999177 0.00000000 0.00000000 0.00000000 25.52998949
19.99999177 0.00000000 0.00000000 0.00000000 19.99999177 0.00000000 0.00000000 0.00000000 25.52998949
19.99999177 0.00000000 0.00000000 0.00000000 19.99999177 0.00000000 0.00000000 0.00000000 25.52998949
19.99999177 0.00000000 0.00000000 0.00000000 19.99999177 0.00000000 0.00000000 0.00000000 25.52998949
19.99999177 0.00000000 0.00000000 0.00000000 19.99999177 0.00000000 0.00000000 0.00000000 25.52998949
19.99999177 0.00000000 0.00000000 0.00000000 19.99999177 0.00000000 0.00000000 0.00000000 25.52998949
19.99999177 0.00000000 0.00000000 0.00000000 19.99999177 0.00000000 0.00000000 0.00000000 25.52998949
19.99999177 0.00000000 0.00000000 0.00000000 19.99999177 0.00000000 0.00000000 0.00000000 25.52998949
19.99999177 0.00000000 0.00000000 0.00000000 19.99999177 0.00000000 0.00000000 0.00000000 25.52998949
19.99999177 0.00000000 0.00000000 0.00000000 19.99999177 0.00000000 0.00000000 0.00000000 25.52998949
19.99999177 0.00000000 0.00000000 0.00000000 19.99999177 0.00000000 0.00000000 0.00000000 25.52998949
19.99999177 0.00000000 0.00000000 0.00000000 19.99999177 0.00000000 0.00000000 0.00000000 25.52998949
19.99999177 0.00000000 0.00000000 0.00000000 19.99999177 0.00000000 0.00000000 0.00000000 25.52998949
19.99999177 0.00000000 0.00000000 0.00000000 19.99999177 0.00000000 0.00000000 0.00000000 25.52998949
19.99999177 0.00000000 0.00000000 0.00000000 19.99999177 0.00000000 0.00000000 0.00000000 25.52998949
19.99999177 0.00000000 0.00000000 0.00000000 19.99999177 0.00000000 0.00000000 0.00000000 25.52998949
19.99999177 0.00000000 0.00000000 0.00000000 19.99999177 0.00000000 0.00000000 0.00000000 25.52998949
19.99999177 0.00000000 0.00000000 0.00000000 19.99999177 0.00000000 0.00000000 0.00000000 25.52998949
19.99999177 0.00000000 0.00000000 0.00000000 19.99999177 0.00000000 0.00000000 0.00000000 25.52998949
19.99999177 0.00000000 0.00000000 0.00000000 19.99999177 0.00000000 0.00000000 0.00000000 25.52998949
19.99999177 0.00000000 0.00000000 0.00000000 19.99999177 0.00000000 0.00000000 0.00000000 25.52998949
19.99999177 0.00000000 0.00000000 0.00000000 19.99999177 0.00000000 0.00000000 0.00000000 25.52998949
19.99999177 0.00000000 0.00000000 0.00000000 19.99999177 0.00000000 0.00000000 0.00000000 25.52998949
19.99999177 0.00000000 0.00000000 0.00000000 19.99999177 0.00000000 0.00000000 0.00000000 25.52998949
19.99999177 0.00000000 0.00000000 0.00000000 19.99999177 0.00000000 0.00000000 0.00000000 25.52998949
19.99999177 0.00000000 0.00000000 0.00000000 19.99999177 0.00000000 0.00000000 0.00000000 25.52998949
19.99999177 0.00000000 0.00000000 0.00000000 19.99999177 0.00000000 0.00000000 0.00000000 25.52998949
19.99999177 0.00000000 0.00000000 0.00000000 19.99999177 0.00000000 0.00000000 0.00000000 25.51778950
19.99999177 0.00000000 0.00000000 0.00000000 19.99999177 0.00000000 0.00000000 0.00000000 25.50668950
19.99999177 0.00000000 0.00000000 0.00000000 19.99999177 0.00000000 0.00000000 0.00000000 25.52748949
19.99999177 0.00000000 0.00000000 0.00000000 19.99999177 0.00000000 0.00000000 0.00000000 25.52858949
19.99999177 0.00000000 0.00000000 0.00000000 19.99999177 0.00000000 0.00000000 0.00000000 25.53398949
19.99999177 0.00000000 0.00000000 0.00000000 19.99999177 0.00000000 0.00000000 0.00000000 25.53678949
19.99999177 0.00000000 0.00000000 0.00000000 19.99999177 0.00000000 0.00000000 0.00000000 25.55838948
19.99999177 0.00000000 0.00000000 0.00000000 19.99999177 0.00000000 0.00000000 0.00000000 25.55328948
19.99999177 0.00000000 0.00000000 0.00000000 19.99999177 0.00000000 0.00000000 0.00000000 25.59088947
19.99999177 0.00000000 0.00000000 0.00000000 19.99999177 0.00000000 0.00000000 0.00000000 25.57808947
19.99999177 0.00000000 0.00000000 0.00000000 19.99999177 0.00000000 0.00000000 0.00000000 25.52718949
19.99999177 0.00000000 0.00000000 0.00000000 19.99999177 0.00000000 0.00000000 0.00000000 25.52968949
19.99999177 0.00000000 0.00000000 0.00000000 19.99999177 0.00000000 0.00000000 0.00000000 25.53468949
19.99999177 0.00000000 0.00000000 0.00000000 19.99999177 0.00000000 0.00000000 0.00000000 25.53678949
19.99999177 0.00000000 0.00000000 0.00000000 19.99999177 0.00000000 0.00000000 0.00000000 25.52138950
19.99999177 0.00000000 0.00000000 0.00000000 19.99999177 0.00000000 0.00000000 0.00000000 25.54048949
19.99999177 0.00000000 0.00000000 0.00000000 19.99999177 0.00000000 0.00000000 0.00000000 25.53418949
19.99999177 0.00000000 0.00000000 0.00000000 19.99999177 0.00000000 0.00000000 0.00000000 25.49438951
19.99999177 0.00000000 0.00000000 0.00000000 19.99999177 0.00000000 0.00000000 0.00000000 25.54898948
19.99999177 0.00000000 0.00000000 0.00000000 19.99999177 0.00000000 0.00000000 0.00000000 25.52168950
19.99999177 0.00000000 0.00000000 0.00000000 19.99999177 0.00000000 0.00000000 0.00000000 25.54068949
19.99999177 0.00000000 0.00000000 0.00000000 19.99999177 0.00000000 0.00000000 0.00000000 25.54158949
19.99999177 0.00000000 0.00000000 0.00000000 19.99999177 0.00000000 0.00000000 0.00000000 25.56828948
19.99999177 0.00000000 0.00000000 0.00000000 19.99999177 0.00000000 0.00000000 0.00000000 25.52998949
19.99999177 0.00000000 0.00000000 0.00000000 19.99999177 0.00000000 0.00000000 0.00000000 25.53208949
19.99999177 0.00000000 0.00000000 0.00000000 19.99999177 0.00000000 0.00000000 0.00000000 25.53218949
19.99999177 0.00000000 0.00000000 0.00000000 19.99999177 0.00000000 0.00000000 0.00000000 25.54638949
19.99999177 0.00000000 0.00000000 0.00000000 19.99999177 0.00000000 0.00000000 0.00000000 25.53728949
19.99999177 0.00000000 0.00000000 0.00000000 19.99999177 0.00000000 0.00000000 0.00000000 25.53088949
19.99999177 0.00000000 0.00000000 0.00000000 19.99999177 0.00000000 0.00000000 0.00000000 25.53098949
19.99999177 0.00000000 0.00000000 0.00000000 19.99999177 0.00000000 0.00000000 0.00000000 25.54248949
19.99999177 0.00000000 0.00000000 0.00000000 19.99999177 0.00000000 0.00000000 0.00000000 25.52738949
19.99999177 0.00000000 0.00000000 0.00000000 19.99999177 0.00000000 0.00000000 0.00000000 25.55918948
19.99999177 0.00000000 0.00000000 0.00000000 19.99999177 0.00000000 0.00000000 0.00000000 25.55718948
19.99999177 0.00000000 0.00000000 0.00000000 19.99999177 0.00000000 0.00000000 0.00000000 25.54788948
19.99999177 0.00000000 0.00000000 0.00000000 19.99999177 0.00000000 0.00000000 0.00000000 25.53378949
19.99999177 0.00000000 0.00000000 0.00000000 19.99999177 0.00000000 0.00000000 0.00000000 25.52078950
19.99999177 0.00000000 0.00000000 0.00000000 19.99999177 0.00000000 0.00000000 0.00000000 25.52888949
19.99999177 0.00000000 0.00000000 0.00000000 19.99999177 0.00000000 0.00000000 0.00000000 25.54718949
19.99999177 0.00000000 0.00000000 0.00000000 19.99999177 0.00000000 0.00000000 0.00000000 25.56738948
19.99999177 0.00000000 0.00000000 0.00000000 19.99999177 0.00000000 0.00000000 0.00000000 25.55718948
19.99999177 0.00000000 0.00000000 0.00000000 19.99999177 0.00000000 0.00000000 0.00000000 25.53928949
19.99999177 0.00000000 0.00000000 0.00000000 19.99999177 0.00000000 0.00000000 0.00000000 25.54168949
19.99999177 0.00000000 0.00000000 0.00000000 19.99999177 0.00000000 0.00000000 0.00000000 25.55358948
19.99999177 0.00000000 0.00000000 0.00000000 19.99999177 0.00000000 0.00000000 0.00000000 25.55868948
19.99999177 0.00000000 0.00000000 0.00000000 19.99999177 0.00000000 0.00000000 0.00000000 25.50938950
19.99999177 0.00000000 0.00000000 0.00000000 19.99999177 0.00000000 0.00000000 0.00000000 25.48478951
19.99999177 0.00000000 0.00000000 0.00000000 19.99999177 0.00000000 0.00000000 0.00000000 25.50798950
19.99999177 0.00000000 0.00000000 0.00000000 19.99999177 0.00000000 0.00000000 0.00000000 25.53838949
19.99999177 0.00000000 0.00000000 0.00000000 19.99999177 0.00000000 0.00000000 0.00000000 25.52988949
19.99999177 0.00000000 0.00000000 0.00000000 19.99999177 0.00000000 0.00000000 0.00000000 25.49068951
19.99999177 0.00000000 0.00000000 0.00000000 19.99999177 0.00000000 0.00000000 0.00000000 25.51218950
19.99999177 0.00000000 0.00000000 0.00000000 19.99999177 0.00000000 0.00000000 0.00000000 25.51918950
19.99999177 0.00000000 0.00000000 0.00000000 19.99999177 0.00000000 0.00000000 0.00000000 25.53478949
19.99999177 0.00000000 0.00000000 0.00000000 19.99999177 0.00000000 0.00000000 0.00000000 25.54758949
19.99999177 0.00000000 0.00000000 0.00000000 19.99999177 0.00000000 0.00000000 0.00000000 25.56208948
19.99999177 0.00000000 0.00000000 0.00000000 19.99999177 0.00000000 0.00000000 0.00000000 25.50788950
19.99999177 0.00000000 0.00000000 0.00000000 19.99999177 0.00000000 0.00000000 0.00000000 25.48538951
19.99999177 0.00000000 0.00000000 0.00000000 19.99999177 0.00000000 0.00000000 0.00000000 25.51738950
19.99999177 0.00000000 0.00000000 0.00000000 19.99999177 0.00000000 0.00000000 0.00000000 25.52558949
19.99999177 0.00000000 0.00000000 0.00000000 19.99999177 0.00000000 0.00000000 0.00000000 25.49808951
19.99999177 0.00000000 0.00000000 0.00000000 19.99999177 0.00000000 0.00000000 0.00000000 25.53078949
19.99999177 0.00000000 0.00000000 0.00000000 19.99999177 0.00000000 0.00000000 0.00000000 25.45298952
19.99999177 0.00000000 0.00000000 0.00000000 19.99999177 0.00000000 0.00000000 0.00000000 25.50508950
19.99999177 0.00000000 0.00000000 0.00000000 19.99999177 0.00000000 0.00000000 0.00000000 25.59238947
19.99999177 0.00000000 0.00000000 0.00000000 19.99999177 0.00000000 0.00000000 0.00000000 25.56428948
19.99999177 0.00000000 0.00000000 0.00000000 19.99999177 0.00000000 0.00000000 0.00000000 25.52738949
19.99999177 0.00000000 0.00000000 0.00000000 19.99999177 0.00000000 0.00000000 0.00000000 25.45638952
19.99999177 0.00000000 0.00000000 0.00000000 19.99999177 0.00000000 0.00000000 0.00000000 25.52998949
19.99999177 0.00000000 0.00000000 0.00000000 19.99999177 0.00000000 0.00000000 0.00000000 25.52998949
19.99999177 0.00000000 0.00000000 0.00000000 19.99999177 0.00000000 0.00000000 0.00000000 25.60338946
19.99999177 0.00000000 0.00000000 0.00000000 19.99999177 0.00000000 0.00000000 0.00000000 25.57358947
19.99999177 0.00000000 0.00000000 0.00000000 19.99999177 0.00000000 0.00000000 0.00000000 25.59908946
19.99999177 0.00000000 0.00000000 0.00000000 19.99999177 0.00000000 0.00000000 0.00000000 25.59728946
19.99999177 0.00000000 0.00000000 0.00000000 19.99999177 0.00000000 0.00000000 0.00000000 25.62758945
19.99999177 0.00000000 0.00000000 0.00000000 19.99999177 0.00000000 0.00000000 0.00000000 25.61188946
19.99999177 0.00000000 0.00000000 0.00000000 19.99999177 0.00000000 0.00000000 0.00000000 25.52998949
19.99999177 0.00000000 0.00000000 0.00000000 19.99999177 0.00000000 0.00000000 0.00000000 25.54408949
19.99999177 0.00000000 0.00000000 0.00000000 19.99999177 0.00000000 0.00000000 0.00000000 25.57328947
19.99999177 0.00000000 0.00000000 0.00000000 19.99999177 0.00000000 0.00000000 0.00000000 25.55478948
19.99999177 0.00000000 0.00000000 0.00000000 19.99999177 0.00000000 0.00000000 0.00000000 25.58168947
19.99999177 0.00000000 0.00000000 0.00000000 19.99999177 0.00000000 0.00000000 0.00000000 25.60438946
19.99999177 0.00000000 0.00000000 0.00000000 19.99999177 0.00000000 0.00000000 0.00000000 25.54718949
19.99999177 0.00000000 0.00000000 0.00000000 19.99999177 0.00000000 0.00000000 0.00000000 25.56458948
19.99999177 0.00000000 0.00000000 0.00000000 19.99999177 0.00000000 0.00000000 0.00000000 25.54788948
19.99999177 0.00000000 0.00000000 0.00000000 19.99999177 0.00000000 0.00000000 0.00000000 25.59258947
19.99999177 0.00000000 0.00000000 0.00000000 19.99999177 0.00000000 0.00000000 0.00000000 25.55568948
19.99999177 0.00000000 0.00000000 0.00000000 19.99999177 0.00000000 0.00000000 0.00000000 25.60008946
19.99999177 0.00000000 0.00000000 0.00000000 19.99999177 0.00000000 0.00000000 0.00000000 25.64738944
19.99999177 0.00000000 0.00000000 0.00000000 19.99999177 0.00000000 0.00000000 0.00000000 25.54018949
19.99999177 0.00000000 0.00000000 0.00000000 19.99999177 0.00000000 0.00000000 0.00000000 25.53458949
19.99999177 0.00000000 0.00000000 0.00000000 19.99999177 0.00000000 0.00000000 0.00000000 25.56228948
19.99999177 0.00000000 0.00000000 0.00000000 19.99999177 0.00000000 0.00000000 0.00000000 25.60628946
19.99999177 0.00000000 0.00000000 0.00000000 19.99999177 0.00000000 0.00000000 0.00000000 25.57408947
19.99999177 0.00000000 0.00000000 0.00000000 19.99999177 0.00000000 0.00000000 0.00000000 25.54348949
19.99999177 0.00000000 0.00000000 0.00000000 19.99999177 0.00000000 0.00000000 0.00000000 25.60138946
19.99999177 0.00000000 0.00000000 0.00000000 19.99999177 0.00000000 0.00000000 0.00000000 25.54218949
19.99999177 0.00000000 0.00000000 0.00000000 19.99999177 0.00000000 0.00000000 0.00000000 25.58378947
19.99999177 0.00000000 0.00000000 0.00000000 19.99999177 0.00000000 0.00000000 0.00000000 25.59238947
19.99999177 0.00000000 0.00000000 0.00000000 19.99999177 0.00000000 0.00000000 0.00000000 25.55898948
19.99999177 0.00000000 0.00000000 0.00000000 19.99999177 0.00000000 0.00000000 0.00000000 25.60538946
19.99999177 0.00000000 0.00000000 0.00000000 19.99999177 0.00000000 0.00000000 0.00000000 25.61668946
19.99999177 0.00000000 0.00000000 0.00000000 19.99999177 0.00000000 0.00000000 0.00000000 25.57628947
19.99999177 0.00000000 0.00000000 0.00000000 19.99999177 0.00000000 0.00000000 0.00000000 25.55318948
19.99999177 0.00000000 0.00000000 0.00000000 19.99999177 0.00000000 0.00000000 0.00000000 25.53328949
19.99999177 0.00000000 0.00000000 0.00000000 19.99999177 0.00000000 0.00000000 0.00000000 25.58478947
19.99999177 0.00000000 0.00000000 0.00000000 19.99999177 0.00000000 0.00000000 0.00000000 25.56618948
19.99999177 0.00000000 0.00000000 0.00000000 19.99999177 0.00000000 0.00000000 0.00000000 25.52998949
19.99999177 0.00000000 0.00000000 0.00000000 19.99999177 0.00000000 0.00000000 0.00000000 25.54528949
19.99999177 0.00000000 0.00000000 0.00000000 19.99999177 0.00000000 0.00000000 0.00000000 25.62048946
19.99999177 0.00000000 0.00000000 0.00000000 19.99999177 0.00000000 0.00000000 0.00000000 25.56068948
19.99999177 0.00000000 0.00000000 0.00000000 19.99999177 0.00000000 0.00000000 0.00000000 25.53838949
19.99999177 0.00000000 0.00000000 0.00000000 19.99999177 0.00000000 0.00000000 0.00000000 25.54478949
19.99999177 0.00000000 0.00000000 0.00000000 19.99999177 0.00000000 0.00000000 0.00000000 25.57788947
19.99999177 0.00000000 0.00000000 0.00000000 19.99999177 0.00000000 0.00000000 0.00000000 25.62088945
19.99999177 0.00000000 0.00000000 0.00000000 19.99999177 0.00000000 0.00000000 0.00000000 25.64848944
19.99999177 0.00000000 0.00000000 0.00000000 19.99999177 0.00000000 0.00000000 0.00000000 25.64498945
19.99999177 0.00000000 0.00000000 0.00000000 19.99999177 0.00000000 0.00000000 0.00000000 25.61208946
19.99999177 0.00000000 0.00000000 0.00000000 19.99999177 0.00000000 0.00000000 0.00000000 25.60758946
19.99999177 0.00000000 0.00000000 0.00000000 19.99999177 0.00000000 0.00000000 0.00000000 25.63788945
19.99999177 0.00000000 0.00000000 0.00000000 19.99999177 0.00000000 0.00000000 0.00000000 25.61988946
19.99999177 0.00000000 0.00000000 0.00000000 19.99999177 0.00000000 0.00000000 0.00000000 25.55148948
19.99999177 0.00000000 0.00000000 0.00000000 19.99999177 0.00000000 0.00000000 0.00000000 25.63208945
19.99999177 0.00000000 0.00000000 0.00000000 19.99999177 0.00000000 0.00000000 0.00000000 25.59728946
19.99999177 0.00000000 0.00000000 0.00000000 19.99999177 0.00000000 0.00000000 0.00000000 25.56038948
19.99999177 0.00000000 0.00000000 0.00000000 19.99999177 0.00000000 0.00000000 0.00000000 25.54158949
19.99999177 0.00000000 0.00000000 0.00000000 19.99999177 0.00000000 0.00000000 0.00000000 25.55058948
19.99999177 0.00000000 0.00000000 0.00000000 19.99999177 0.00000000 0.00000000 0.00000000 25.52998949
19.99999177 0.00000000 0.00000000 0.00000000 19.99999177 0.00000000 0.00000000 0.00000000 25.56268948
19.99999177 0.00000000 0.00000000 0.00000000 19.99999177 0.00000000 0.00000000 0.00000000 25.59388947
19.99999177 0.00000000 0.00000000 0.00000000 19.99999177 0.00000000 0.00000000 0.00000000 25.60528946
19.99999177 0.00000000 0.00000000 0.00000000 19.99999177 0.00000000 0.00000000 0.00000000 25.60848946
19.99999177 0.00000000 0.00000000 0.00000000 19.99999177 0.00000000 0.00000000 0.00000000 25.61458946
19.99999177 0.00000000 0.00000000 0.00000000 19.99999177 0.00000000 0.00000000 0.00000000 25.54528949
19.99999177 0.00000000 0.00000000 0.00000000 19.99999177 0.00000000 0.00000000 0.00000000 25.54418949
19.99999177 0.00000000 0.00000000 0.00000000 19.99999177 0.00000000 0.00000000 0.00000000 25.56528948
19.99999177 0.00000000 0.00000000 0.00000000 19.99999177 0.00000000 0.00000000 0.00000000 25.61768946
19.99999177 0.00000000 0.00000000 0.00000000 19.99999177 0.00000000 0.00000000 0.00000000 25.60088946
19.99999177 0.00000000 0.00000000 0.00000000 19.99999177 0.00000000 0.00000000 0.00000000 25.62898945
19.99999177 0.00000000 0.00000000 0.00000000 19.99999177 0.00000000 0.00000000 0.00000000 25.57158948
19.99999177 0.00000000 0.00000000 0.00000000 19.99999177 0.00000000 0.00000000 0.00000000 25.58578947
19.99999177 0.00000000 0.00000000 0.00000000 19.99999177 0.00000000 0.00000000 0.00000000 25.60128946
19.99999177 0.00000000 0.00000000 0.00000000 19.99999177 0.00000000 0.00000000 0.00000000 25.59008947
19.99999177 0.00000000 0.00000000 0.00000000 19.99999177 0.00000000 0.00000000 0.00000000 25.52998949
19.99999177 0.00000000 0.00000000 0.00000000 19.99999177 0.00000000 0.00000000 0.00000000 25.62228945
19.99999177 0.00000000 0.00000000 0.00000000 19.99999177 0.00000000 0.00000000 0.00000000 25.54478949
19.99999177 0.00000000 0.00000000 0.00000000 19.99999177 0.00000000 0.00000000 0.00000000 25.61318946
19.99999177 0.00000000 0.00000000 0.00000000 19.99999177 0.00000000 0.00000000 0.00000000 25.57548947
19.99999177 0.00000000 0.00000000 0.00000000 19.99999177 0.00000000 0.00000000 0.00000000 25.60048946
19.99999177 0.00000000 0.00000000 0.00000000 19.99999177 0.00000000 0.00000000 0.00000000 25.54008949
19.99999177 0.00000000 0.00000000 0.00000000 19.99999177 0.00000000 0.00000000 0.00000000 25.53648949
19.99999177 0.00000000 0.00000000 0.00000000 19.99999177 0.00000000 0.00000000 0.00000000 25.55078948
19.99999177 0.00000000 0.00000000 0.00000000 19.99999177 0.00000000 0.00000000 0.00000000 25.61678946
19.99999177 0.00000000 0.00000000 0.00000000 19.99999177 0.00000000 0.00000000 0.00000000 25.54708949
19.99999177 0.00000000 0.00000000 0.00000000 19.99999177 0.00000000 0.00000000 0.00000000 25.57128948
19.99999177 0.00000000 0.00000000 0.00000000 19.99999177 0.00000000 0.00000000 0.00000000 25.59878946
19.99999177 0.00000000 0.00000000 0.00000000 19.99999177 0.00000000 0.00000000 0.00000000 25.57168948
19.99999177 0.00000000 0.00000000 0.00000000 19.99999177 0.00000000 0.00000000 0.00000000 25.60308946
19.99999177 0.00000000 0.00000000 0.00000000 19.99999177 0.00000000 0.00000000 0.00000000 25.60308946
19.99999177 0.00000000 0.00000000 0.00000000 19.99999177 0.00000000 0.00000000 0.00000000 25.56498948
19.99999177 0.00000000 0.00000000 0.00000000 19.99999177 0.00000000 0.00000000 0.00000000 25.63968945
19.99999177 0.00000000 0.00000000 0.00000000 19.99999177 0.00000000 0.00000000 0.00000000 25.58748947
19.99999177 0.00000000 0.00000000 0.00000000 19.99999177 0.00000000 0.00000000 0.00000000 25.61108946
19.99999177 0.00000000 0.00000000 0.00000000 19.99999177 0.00000000 0.00000000 0.00000000 25.58248947
19.99999177 0.00000000 0.00000000 0.00000000 19.99999177 0.00000000 0.00000000 0.00000000 25.54788948
19.99999177 0.00000000 0.00000000 0.00000000 19.99999177 0.00000000 0.00000000 0.00000000 25.60568946
19.99999177 0.00000000 0.00000000 0.00000000 19.99999177 0.00000000 0.00000000 0.00000000 25.56758948
19.99999177 0.00000000 0.00000000 0.00000000 19.99999177 0.00000000 0.00000000 0.00000000 25.63568945
19.99999177 0.00000000 0.00000000 0.00000000 19.99999177 0.00000000 0.00000000 0.00000000 25.57278947
19.99999177 0.00000000 0.00000000 0.00000000 19.99999177 0.00000000 0.00000000 0.00000000 25.55538948
19.99999177 0.00000000 0.00000000 0.00000000 19.99999177 0.00000000 0.00000000 0.00000000 25.60198946
19.99999177 0.00000000 0.00000000 0.00000000 19.99999177 0.00000000 0.00000000 0.00000000 25.63228945
19.99999177 0.00000000 0.00000000 0.00000000 19.99999177 0.00000000 0.00000000 0.00000000 25.57318947
19.99999177 0.00000000 0.00000000 0.00000000 19.99999177 0.00000000 0.00000000 0.00000000 25.65558944
19.99999177 0.00000000 0.00000000 0.00000000 19.99999177 0.00000000 0.00000000 0.00000000 25.58538947
19.99999177 0.00000000 0.00000000 0.00000000 19.99999177 0.00000000 0.00000000 0.00000000 25.60618946
19.99999177 0.00000000 0.00000000 0.00000000 19.99999177 0.00000000 0.00000000 0.00000000 25.55978948
19.99999177 0.00000000 0.00000000 0.00000000 19.99999177 0.00000000 0.00000000 0.00000000 25.60728946
19.99999177 0.00000000 0.00000000 0.00000000 19.99999177 0.00000000 0.00000000 0.00000000 25.53258949
19.99999177 0.00000000 0.00000000 0.00000000 19.99999177 0.00000000 0.00000000 0.00000000 25.63718945
19.99999177 0.00000000 0.00000000 0.00000000 19.99999177 0.00000000 0.00000000 0.00000000 25.57588947
19.99999177 0.00000000 0.00000000 0.00000000 19.99999177 0.00000000 0.00000000 0.00000000 25.54678949
19.99999177 0.00000000 0.00000000 0.00000000 19.99999177 0.00000000 0.00000000 0.00000000 25.53888949
19.99999177 0.00000000 0.00000000 0.00000000 19.99999177 0.00000000 0.00000000 0.00000000 25.60798946
19.99999177 0.00000000 0.00000000 0.00000000 19.99999177 0.00000000 0.00000000 0.00000000 25.62128945
19.99999177 0.00000000 0.00000000 0.00000000 19.99999177 0.00000000 0.00000000 0.00000000 25.63098945
19.99999177 0.00000000 0.00000000 0.00000000 19.99999177 0.00000000 0.00000000 0.00000000 25.63648945
19.99999177 0.00000000 0.00000000 0.00000000 19.99999177 0.00000000 0.00000000 0.00000000 25.61318946
19.99999177 0.00000000 0.00000000 0.00000000 19.99999177 0.00000000 0.00000000 0.00000000 25.57338947
19.99999177 0.00000000 0.00000000 0.00000000 19.99999177 0.00000000 0.00000000 0.00000000 25.58958947
19.99999177 0.00000000 0.00000000 0.00000000 19.99999177 0.00000000 0.00000000 0.00000000 25.61868946
19.99999177 0.00000000 0.00000000 0.00000000 19.99999177 0.00000000 0.00000000 0.00000000 25.60278946
19.99999177 0.00000000 0.00000000 0.00000000 19.99999177 0.00000000 0.00000000 0.00000000 25.54708949
19.99999177 0.00000000 0.00000000 0.00000000 19.99999177 0.00000000 0.00000000 0.00000000 25.61938946
19.99999177 0.00000000 0.00000000 0.00000000 19.99999177 0.00000000 0.00000000 0.00000000 25.57558947
19.99999177 0.00000000 0.00000000 0.00000000 19.99999177 0.00000000 0.00000000 0.00000000 25.60308946
19.99999177 0.00000000 0.00000000 0.00000000 19.99999177 0.00000000 0.00000000 0.00000000 25.63048945
19.99999177 0.00000000 0.00000000 0.00000000 19.99999177 0.00000000 0.00000000 0.00000000 25.58538947
19.99999177 0.00000000 0.00000000 0.00000000 19.99999177 0.00000000 0.00000000 0.00000000 25.55908948
19.99999177 0.00000000 0.00000000 0.00000000 19.99999177 0.00000000 0.00000000 0.00000000 25.52998949
19.99999177 0.00000000 0.00000000 0.00000000 19.99999177 0.00000000 0.00000000 0.00000000 25.58488947
19.99999177 0.00000000 0.00000000 0.00000000 19.99999177 0.00000000 0.00000000 0.00000000 25.60028946
19.99999177 0.00000000 0.00000000 0.00000000 19.99999177 0.00000000 0.00000000 0.00000000 25.57108948
19.99999177 0.00000000 0.00000000 0.00000000 19.99999177 0.00000000 0.00000000 0.00000000 25.56188948