-82819.44796430
-82818.81329889
-82819.02823899
-82818.95882775
-82819.62756509
-82820.60805292
-82819.08135387
-82820.36811222
-82817.42388569
-82818.54351219
-82819.19463750
-82819.97762256
-82818.92236244
-82817.88837429
-82820.53322308
-82817.20725672
-82818.48601206
-82820.54460261
-82818.48143265
-82819.72063623
-82818.69091333
-82818.98152097
-82818.82430332
-82819.25751704
-82821.81863460
-82818.77510307
-82818.98663045
-82819.45908791
-82817.77731111
-82818.68332502
-82821.89190305
-82816.56600874
-82818.23578177
-82818.97944392
-82820.21859390
-82820.17402598
-82820.62856460
-82819.96660249
-82820.75659395
-82819.14096084
-82817.65056791
-82818.97648251
-82819.00188788
-82820.47580853
-82819.97363854
-82820.27295560
-82821.65444267
-82820.73784407
-82819.21500441
-82821.19254582
-82820.36580837
-82819.82946549
-82820.21426198
-82820.81033196
-82821.31017511
-82820.70999035
-82818.74554116
-82820.74019554
-82822.64988030
-82819.01111282
-82819.70020700
-82820.83866202
-82822.84149370
-82821.73465615
-82821.33234627
-82821.01986039
-82821.68214387
-82820.02799779
-82821.24755583
-82819.79904492
-82819.80992186
-82822.44820875
-82819.79547315
-82820.18317541
-82818.99828183
-82821.49476946
-82821.71712330
-82821.06974269
-82821.90197903
-82820.62094976
-82822.34623337
-82820.23118379
-82819.95140860
-82821.08750126
-82819.47022703
-82818.30829307
-82820.86323636
-82822.00877736
-82819.66533968
-82820.64292296
-82829.41225021
-82828.73969579
-82828.61283123
-82822.70036642
-82824.44550972
-82823.32925866
-82824.04091993
-82823.94353144
-82823.25497019
-82824.49900120
-82819.12995846
-82820.46149125
-82817.11642929
-82820.01127898
-82820.48738208
-82821.02638895
-82818.61160381
-82819.87901336
-82819.48091553
-82819.96994160
-82819.52561977
-82820.48376174
-82820.48502857
-82821.31069444
-82810.88069392
-82813.60293219
-82812.88549788
-82812.99296589
-82813.92414232
-82816.92327777
-82815.15741789
-82811.64562518
-82814.13792225
-82811.63663684
-82813.29142035
-82814.27927090
-82813.22402806
-82815.00302070
-82811.60873741
-82814.84502766
-82814.36460148
-82813.03934404
-82815.11358224
-82811.70310394
-82814.49597430
-82812.54800364
-82812.35700413
-82813.55706371
-82813.10704123
-82811.24535751
-82813.38888613
-82813.76724508
-82811.99061330
-82812.01509485
-82815.41391414
-82812.24192605
-82810.93416799
-82811.06143378
-82814.86571254
-82811.01155284
-82811.75852553
-82811.68578308
-82813.15051824
-82812.39263433
-82813.33564390
-82810.69896533
-82814.16540114
-82813.27125031
-82820.27307261
-82818.74550007
-82828.27902236
-82830.10512093
-82830.11158594
-82824.67886023
-82824.56137530
-82824.36892651
-82818.74550007
-82821.40891574
-82820.64048795
-82820.85592398
-82821.11579771
-82820.88724919
-82820.53926074
-82820.41431594
-82816.57200708
-82816.39207309
-82817.30918339
-82818.42361946
-82814.51744803
-82818.11291144
-82815.78037872
-82814.26091477
-82817.63341738
-82815.66167717
-82817.55058630
-82817.02795606
-82818.57391779
-82817.13236021
-82817.00822658
-82816.84419274
-82817.84612343
-82815.62769694
-82816.99626445
-82814.94846403
-82817.31728627
-82816.57194694
-82816.67481405
-82819.19408742
-82814.04125459
-82814.64351068
-82812.81900507
-82811.42290099
-82811.33064306
-82813.92074375
-82812.42611469
-82811.81639070
-82812.78357814
-82812.24204578
-82813.13352826
-82813.45445784
-82813.54654501
-82813.67719141
-82814.04949039
-82814.34567079
-82812.92693159
-82812.56467743
-82810.41660220
-82820.74014915
-82811.29627915
-82812.09005177
-82813.31551563
-82813.22345186
-82813.68628641
-82813.07994753
-82812.63641946
-82814.08131792
-82810.81663925
-82814.87655751
-82810.76889862
-82814.43967541
-82814.01082966
-82829.78005400
-82828.72190797
-82820.74014915
-82825.88288573
-82824.25660481
-82826.29852865
-82826.02389791
-82826.94084617
-82818.92409173
-82819.55384384
-82820.52959675
-82822.02197203
-82819.76865523
-82822.46268875
-82820.12972107
-82820.30081122
-82820.37892684
-82822.04682937
-82819.88753583
-82820.02084256
-82821.18041049
-82822.27647015
-82815.69608993
-82817.44071430
-82816.15945048
-82815.98920238
-82816.04388450
-82817.06808770
-82816.71636422
-82814.86621731
-82818.60589010
-82817.88982261
-82816.55055130
-82818.42621366
-82815.91820023
-82815.44618509
-82816.39817687
-82811.92498989
-82814.63034880
-82814.32725915
-82811.88158186
-82810.26081342
-82812.64792199
-82814.41794085
-82813.35890869
-82810.93117637
-82815.55585885
-82814.79373826
-82815.48647769
-82813.82567557
-82811.89145470
-82812.66018303
-82810.92673125
-82810.31804769
-82811.68467040
-82810.51826778
-82811.11160860
-82813.32480819
-82820.74014915
-82814.41994361
-82814.24511352
-82812.37945354
-82813.19165874
-82810.85486840
-82811.90819624
-82810.45155986
-82811.38424815
-82815.15661407
-82813.61468697
-82812.10484198
-82814.04898344
-82814.64163377
-82813.52798466
-82813.24653569
-82812.22593800
-82815.22160264
-82812.35650358
-82813.28770232
-82814.01829552
-82814.93925705
-82812.95311997
-82814.55123016
-82811.51311234
-82830.20336345
-82827.68321333
-82828.65670307
-82828.65778323
-82828.69563088
-82829.49138897
-82823.86081968
-82825.84202456
-82826.92280475
-82822.34185220
-82824.04472313
-82820.73883089
-82822.14354330
-82821.64493093
-82820.63992468
-82822.10104182
-82821.55365996
-82818.06917401
-82821.12186857
-82816.47259501
-82816.44140952
-82816.31216628
-82816.72110063
-82817.68861271
-82815.77554271
-82818.78068563
-82817.87102675
-82816.82863463
-82816.55471927
-82817.28558350
-82812.30137805
-82813.75024313
-82814.13136717
-82814.54874223
-82816.04189085
-82813.42365386
-82813.15172153
-82812.11172428
-82813.42915818
-82811.02474357
-82813.22677301
-82810.58924232
-82813.93855197
-82813.19890732
-82811.30296730
-82811.33740169
-82812.33819575
-82812.34383232
-82811.14714247
-82812.03362676
-82814.38722790
-82813.10546978
-82813.79281318
-82814.90863158
-82811.83570875
-82812.06213682
-82812.68243978
-82815.88745081
-82812.57529559
-82816.09213996
-82816.53515265
-82811.78332069
-82812.88794922
-82821.31069444
-82828.29681481
-82828.55626540
-82831.17488921
-82826.72621071
-82825.69159982
-82824.46514070
-82823.37322085
-82826.03109750
-82824.16152302
-82825.87414747
-82821.81193828
-82821.16689581
-82821.88039753
-82820.09963057
-82820.92721511
-82819.72866659
-82823.46012833
-82818.24803996
-82816.95844891
-82817.36366265
-82815.71678828
-82817.45741816
-82816.67811384
-82817.21418719
-82818.29399090
-82818.43675807
-82812.63929802
-82814.20654491
-82813.71281127
-82811.10210094
-82813.98925592
-82811.27565182
-82813.33337148
-82811.42577193
-82813.21758671
-82819.45929703
-82809.26255124
-82813.03417837
-82810.73189915
-82814.20146712
-82812.40880116
-82812.97660558
-82813.98325513
-82813.09652553
-82812.02650581
-82812.04386940
-82811.49194229
-82813.75644188
-82811.50317107
-82810.85270237
-82813.11143234
-82814.49759745
-82812.87612818
-82827.65784415
-82828.49311496
-82831.13499989
-82820.81036489
-82828.95963911
-82830.15194820
-82823.55149753
-82820.36822610
-82824.75990652
-82823.88131870
-82824.75535147
-82821.59145876
-82821.40270011
-82820.23117835
-82819.54501347
-82813.56176326
-82815.20012250
-82816.54517542
-82816.47263895
-82814.36348051
-82818.15196714
-82815.26084542
-82815.66152574
-82819.21518550
-82818.40154040
-82817.56484752
-82815.20792456
-82816.21328088
-82816.75269375
-82817.57056668
-82817.02671019
-82817.04092760
-82816.47092654
-82817.50560505
-82818.22263296
-82817.94179529
-82818.89098729
-82818.23613321
-82813.25990642
-82813.48788404
-82814.01681739
-82812.60966372
-82811.61460214
-82812.83740460
-82812.54589599
-82811.69606436
-82813.04340208
-82812.01527893
-82812.86966466
-82813.30560102
-82813.53008361
-82814.49665567
-82813.85425270
-82814.51438702
-82815.46304663
-82810.52654984
-82814.98095376
-82813.01098705
-82812.48529199
-82814.29053057
-82811.69134740
-82814.59625441
-82812.45152646
-82811.95472446
-82814.98527207
-82814.14017400
-82812.34521289
-82811.78343743
-82815.49612249
-82829.72515786
-82824.79333463
-82819.82931664
-82824.04675528
-82820.25412681
-82820.47580009
-82819.61616529
-82820.10018078
-82820.07318055
-82820.44881129
-82820.79879297
-82816.77205248
-82818.98610146
-82817.67817197
-82817.77370982
-82817.65366498
-82818.55942827
-82815.70259005
-82816.24379805
-82818.66832188
-82815.03433109
-82816.42469071
-82816.71465983
-82814.71845154
-82814.65195981
-82813.45074035
-82812.91203485
-82813.77179319
-82813.98514823
-82812.43405211
-82812.66479618
-82812.31505845
-82812.74310214
-82812.07261511
-82813.03566465
-82811.26528211
-82811.59254255
-82811.90925694
-82813.54726053
-82812.92569224
-82816.56617391
-82812.15568851
-82810.43289992
-82811.30183449
-82810.39153302
-82812.40477116
-82813.73048493
-82811.36607529
-82811.34349691
-82813.55636696
-82814.11088379
-82811.82941013
-82813.45503839
-82813.43888952
-82812.52678257
-82814.82786843
-82812.63902073
-82812.95321412
-82815.32513424
-82811.40708559
-82828.35654817
-82829.03318621
-82821.89173244
-82824.66341695
-82824.06717145
-82824.57580278
-82820.84276006
-82823.28013256
-82821.19287875
-82820.05108830
-82822.18897572
-82822.18146782
-82821.33868911
-82819.82931664
-82822.39660846
-82816.94367121
-82816.68703115
-82817.52646979
-82815.45987351
-82818.09802122
-82819.78154391
-82816.32182605
-82816.56738223
-82817.46022202
-82817.75886451
-82819.36840444
-82814.20418037
-82815.55233294
-82813.57846520
-82811.55446863
-82813.73457739
-82811.96252189
-82813.26198483
-82812.19483619
-82812.59972448
-82812.63845324
-82813.26489359
-82813.28156329
-82812.46455650
-82812.26392442
-82813.21059379
-82811.38401658
-82818.99869816
-82814.50327811
-82813.75976984
-82812.72869412
-82811.62070539
-82814.75710070
-82810.53139946
-82810.32122979
-82811.51126714
-82813.19407702
-82810.87208301
-82815.54547784
-82811.25234608
-82813.55571403
-82813.43601314
-82812.60559493
-82813.43585436
-82812.08199855
-82812.77524003
-82812.54883074
-82813.51728936
-82813.20145906
-82812.66672493
-82814.79961143
-82813.32932106
-82812.55478609
-82812.91831075
