   -63.48645105     13.69867154     15.13323468     13.69867154    -63.85212401     -3.55359104     15.13323468     -3.55359104      4.31306565 
   -96.27512618    -21.95912987      7.13531077    -21.95912987   -138.39314983      1.20015740      7.13531077      1.20015740     -7.01341979 
   -97.44715489     12.54539529      4.57560008     12.54539529    -80.30740706     -2.07214676      4.57560008     -2.07214676    -13.82056252 
   -69.34659459     -5.21318369      6.57273699     -5.21318369    -93.94044499    -10.91393133      6.57273699    -10.91393133    -12.65791005 
  -134.92394485     -8.31671571     11.68278216     -8.31671571   -105.74511814     -1.50957298     11.68278216     -1.50957298    -26.12217584 
   -70.20920772      1.27516723     10.97018871      1.27516723    -47.73438521     -0.58132624     10.97018871     -0.58132624      1.23766232 
   -97.62530325     11.36399035     21.79973397     11.36399035   -119.58443312     -3.75049187     21.79973397     -3.75049187     -5.77575747 
  -146.94427128     -5.84139108      4.33181810     -5.84139108    -81.65758414     -6.52585585      4.33181810     -6.52585585    -13.07046415 
   -65.71799371     17.50542078      3.73173941     17.50542078    -93.28410892     -5.13817386      3.73173941     -5.13817386      2.02526561 
  -135.06458830    -16.17399617      5.11004517    -16.17399617   -126.77600127      6.33833125      5.11004517      6.33833125    -19.24939950 
   -63.81461909      3.37544268      3.58171973      3.37544268    -92.45900071     13.38925596      3.58171973     13.38925596     -0.23440574 
   -98.01910490     19.70883475     10.35135755     19.70883475    -83.83286942     -1.76273118     10.35135755     -1.76273118     10.64202067 
  -129.46697919     -9.83566492      7.82915177     -9.83566492   -114.28686336     -7.04154848      7.82915177     -7.04154848    -17.81483636 
   -86.37382766      5.11004517      4.83813451      5.11004517    -56.66055585      2.56908693      4.83813451      2.56908693     21.92162495 
  -107.02966160      5.71012386     14.05496826      5.71012386   -123.53182581     -5.14755009     14.05496826     -5.14755009     -9.74190262 
   -96.13448274    -10.68890182     -5.01628287    -10.68890182    -99.99748936     -9.48874442     -5.01628287     -9.48874442     -4.17242220 
   -91.84954578     21.34029871      6.64774683     21.34029871    -88.25844982    -14.38313630      6.64774683    -14.38313630    -14.78631418 
  -105.19192059     -4.82875828     -2.04401807     -4.82875828   -116.06834700    -11.28898051     -2.04401807    -11.28898051    -11.25147560 
   -97.29713521     -6.53523208     -1.52832544     -6.53523208    -75.75055945    -25.74712665     -1.52832544    -25.74712665    -16.07085764 
   -87.87402440     23.32805940     10.70765428     23.32805940   -108.31420507    -13.84869121     10.70765428    -13.84869121    -12.36724693 
  -139.53704985    -11.50463380     -9.26371491    -11.50463380   -131.08906692    -16.22087732     -9.26371491    -16.22087732    -22.53107988 
  -109.65500591    -11.87030675     -5.90702469    -11.87030675   -119.53755197     -9.61063540     -5.90702469     -9.61063540    -13.25798874 
   -52.62877710     35.56403911     -0.78760329     35.56403911    -69.98417821     -4.19117466     -0.78760329     -4.19117466      1.30329592 
  -121.22527331    -27.31295701     -2.80349267    -27.31295701   -100.30690494     -0.19690082     -2.80349267     -0.19690082     -5.38195583 
   -74.71917419      1.86586970     -3.41294760      1.86586970    -56.69806077      0.61883116     -3.41294760      0.61883116      4.81000582 
  -116.57466340    -25.50334468    -11.27960428    -25.50334468   -108.06104687      6.40396486    -11.27960428      6.40396486    -20.59020034 
   -90.18057690     37.63618587    -14.51440352     37.63618587    -96.50953192      9.35747720    -14.51440352      9.35747720     10.35135755 
   -74.31599631     -8.20420096    -10.27634771     -8.20420096    -61.29241331     12.45163299    -10.27634771     12.45163299      9.94817967 
  -118.41240441      2.16590905     -3.51608612      2.16590905   -131.65164070     23.08427743     -3.51608612     23.08427743    -13.51114694 
  -109.97379772     -7.35096406    -10.52012968     -7.35096406    -94.83118681     22.43731758    -10.52012968     22.43731758    -17.70232160 
   -84.70485878     -3.69423449      5.36320337     -3.69423449    -82.48269235     21.80911020      5.36320337     21.80911020      0.27191066 
   -92.51525809     -4.30368942     -9.17932884     -4.30368942   -112.10220185     22.00601102     -9.17932884     22.00601102    -10.12632804 
   -87.36770800     -0.14064344      0.95637543     -0.14064344    -89.18669656     24.58447418      0.95637543     24.58447418     -1.77210741 
  -100.39129100     -8.58862637      0.65633608     -8.58862637   -122.05038152     23.16866350      0.65633608     23.16866350      3.22542300 
  -110.30196576      7.03217225     -5.94452961      7.03217225   -113.41487400     26.42221519     -5.94452961     26.42221519      0.64695985 
   -94.28736549     -7.63225095      0.86261313     -7.63225095    -52.24435168     28.47560949      0.86261313     28.47560949     -6.04766813 
   -99.81934099     -0.42193033    -12.35787070     -0.42193033   -117.73731588     21.92162495    -12.35787070     21.92162495     -9.08556654 
   -97.85033276    -14.01746335      0.92824674    -14.01746335    -95.64691879     17.72107406      0.92824674     17.72107406     -4.82875828 
   -99.29427213      1.31267215     -0.96575166      1.31267215    -96.09697782      8.44798293     -0.96575166      8.44798293    -15.08635353 
   -96.27512618     -8.87928949      8.03542882     -8.87928949    -61.51744282      3.77862055      8.03542882      3.77862055     -5.23193615 
   -81.81698004      8.38234932      4.13491728      8.38234932    -97.08148193      6.46022224      4.13491728      6.46022224    -16.88658962 
  -108.04229441     -3.41294760      6.07579682     -3.41294760   -110.33947068      7.59474603      6.07579682      7.59474603    -15.24574943 
   -70.54675198      3.53483858      4.74437221      3.53483858    -79.43541771     -1.58458281      4.74437221     -1.58458281    -16.74594618 
   -82.09826693     17.96485603     21.15277412     17.96485603    -94.64366222     -0.33754427     21.15277412     -0.33754427     -1.23766232 
   -95.36563190    -10.82954526      9.01055671    -10.82954526    -57.21375340    -14.80506664      9.01055671    -14.80506664      9.69502147 
   -77.55079554     10.29510017     17.39290603     10.29510017   -119.67819542    -10.17320918     17.39290603    -10.17320918     -3.08477956 
   -96.95021472    -10.60451575     15.75206583    -10.60451575    -67.34008144    -12.24535594     15.75206583    -12.24535594      1.20015740 
   -84.53608664      6.71338044     14.02683958      6.71338044    -90.50874494    -13.42676088     14.02683958    -13.42676088     -2.71910660 
   -93.35911876    -10.96081248     13.35175104    -10.96081248   -112.45849858    -18.65869703     13.35175104    -18.65869703      7.56661734 
   -80.42929805     22.01538725      6.27269764     22.01538725    -72.45012661    -22.70922824      6.27269764    -22.70922824     10.05131820 
  -113.38674532     11.79529692      9.57313049     11.79529692    -91.26821954    -28.26933243      9.57313049    -28.26933243      5.44758943 
   -74.91607501      7.64162718     15.61142239      7.64162718   -103.59796155    -21.86536757     15.61142239    -21.86536757      9.87316984 
  -102.87599186      5.36320337      8.91679441      5.36320337    -98.23475818    -13.17360268      8.91679441    -13.17360268     12.11408872 
  -105.22942551     16.39902568      3.15978940     16.39902568   -106.67336488     -8.73864605      3.15978940     -8.73864605     -1.80023610 
   -74.66291681     -4.24743204     10.33260509     -4.24743204    -91.18383347     -8.18544850     10.33260509     -8.18544850     10.28572394 
  -134.24885632     13.81118629     -1.23766232     13.81118629   -105.55759355    -21.91224872     -1.23766232    -21.91224872     -7.94166652 
   -75.54428240    -18.12425194      3.14103694    -18.12425194    -68.14643719    -17.79608390      3.14103694    -17.79608390     11.63590101 
   -84.01101778     10.15445673     11.80467315     10.15445673   -132.28922432    -24.82825615     11.80467315    -24.82825615      5.56948042 
   -90.07743837    -11.96406905     -2.72848283    -11.96406905    -65.71799371    -20.46830935     -2.72848283    -20.46830935     12.18909856 
   -63.30830269      7.56661734     -3.90051154      7.56661734   -100.17563772    -15.96771912     -3.90051154    -15.96771912      8.90741818 
   -79.43541771    -23.22492088     -2.76598775    -23.22492088    -59.03274196     -6.13205420     -2.76598775     -6.13205420     -4.65998614 
  -107.75163129     -3.52546235      3.52546235     -3.52546235   -108.18293785     -5.17567877      3.52546235     -5.17567877     -6.19768781 
   -74.82231271    -13.55802809     -9.38560589    -13.55802809    -78.76032917      3.04727464     -9.38560589      3.04727464     20.06513148 
   -79.87610050     18.46179621    -15.43327403     18.46179621   -116.16210930    -10.55763460    -15.43327403    -10.55763460      8.04480505 
  -119.52817574     -2.60659185    -10.19196164     -2.60659185    -79.06974475      1.10639510    -10.19196164      1.10639510     -7.90416161 
   -85.85813502      2.72848283     -4.45370909      2.72848283    -99.68807378      2.91600743     -4.45370909      2.91600743    -14.73943303 
  -103.02601154     10.85767395     -8.29796325     10.85767395   -106.63585996      0.79697952     -8.29796325      0.79697952    -14.10184941 
   -92.77779252    -14.67379942    -21.85599134    -14.67379942    -57.21375340      9.53562557    -21.85599134      9.53562557      7.98854767 
  -108.17356162     12.11408872    -16.00522403     12.11408872   -103.97301073      7.71663701    -16.00522403      7.71663701     -3.09415579 
  -110.75202478     -2.34405742    -22.19353561     -2.34405742    -92.34648595     16.19274863    -22.19353561     16.19274863     19.37129048 
   -96.36888848     15.74268960    -11.29835674     15.74268960   -102.64158612     18.86497408    -11.29835674     18.86497408     -0.08438607 
  -109.52373869      4.40682794    -12.36724693      4.40682794   -120.49392740     19.33378557    -12.36724693     19.33378557    -17.16787651 
   -78.11336932     -7.25720176    -18.68682572     -7.25720176    -71.85942414      8.64488375    -18.68682572      8.64488375      4.30368942 
   -69.98417821     10.20133787    -10.82016903     10.20133787    -97.03460078     20.28078476    -10.82016903     20.28078476     10.48262476 
   -84.76111615    -13.69867154    -14.16748302    -13.69867154   -107.54535424      8.21357718    -14.16748302      8.21357718      2.04401807 
   -91.56825889     16.63343142    -16.91471831     16.63343142    -62.92387727      7.69788455    -16.91471831      7.69788455     12.81730595 
  -101.78834922      2.66284922     -0.20627705      2.66284922   -117.91546424     14.68317565     -0.20627705     14.68317565      6.41334109 
   -95.49689912     15.70518469    -11.89843544     15.70518469    -83.70160220     14.30812647    -11.89843544     14.30812647     -3.43170006 
  -115.86206995     -6.33833125     -6.31020256     -6.33833125   -137.37114079     13.72680023     -6.31020256     13.72680023      5.49447058 
   -99.72557870      1.79085987    -13.30486989      1.79085987    -81.59195053     12.29223709    -13.30486989     12.29223709     21.99663479 
  -106.91714685      9.62001163     -4.68811483      9.62001163   -101.48830987      9.40435835     -4.68811483      9.40435835      9.99506082 
  -102.09776480     -6.16018289    -15.19886828     -6.16018289   -120.48455117      9.43248704    -15.19886828      9.43248704     -2.78474021 
   -78.74157671     -3.56296727     -3.17854186     -3.56296727    -46.11229748     -0.00937623     -3.17854186     -0.00937623      9.52624934 
  -101.15076561     13.25798874      2.81286890     13.25798874   -137.59617031      8.76677473      2.81286890      8.76677473      0.42193033 
  -102.81035826     -1.13452379      4.73499598     -1.13452379    -80.63557510      3.48795743      4.73499598      3.48795743     12.32036578 
   -85.98940224     -6.76963782      2.21279020     -6.76963782    -66.09304290     10.72640673      2.21279020     10.72640673      8.37297309 
  -111.17395512      9.04806162      4.49121401      9.04806162   -125.97902175     -0.22502951      4.49121401     -0.22502951     -9.00118048 
   -68.59649622    -18.48054867     -2.99101726    -18.48054867    -50.05031394     -0.96575166     -2.99101726     -0.96575166     22.15603069 
  -110.14256985     17.62731177      6.01016321     17.62731177   -119.96885854     12.50789037      6.01016321     12.50789037      3.16916563 
  -115.11197157     -7.91353784      5.85076731     -7.91353784   -106.12954356     -1.36892953      5.85076731     -1.36892953     17.49604455 
   -40.04548368      6.38216110     12.03332578      6.38216110    -23.36377038    -14.98542673     12.03332578    -14.98542673     52.66922965 
   -47.17559834     10.59483752     11.68148752     10.59483752    -32.20605781     19.69084744     11.68148752     19.69084744     67.20368199 
   -24.23518022     19.89441099     22.21948825     19.89441099    -23.25077251    -14.97237246     22.21948825    -14.97237246     47.33594774 
   -49.69129210      9.26320690     -4.62222774      9.26320690    -14.78550333     -0.67505152     -4.62222774     -0.67505152     56.95747160 
   -74.00879823      2.20375920    -26.84835141      2.20375920    -64.94994127     -2.81330961    -26.84835141     -2.81330961     19.27117085 
   -52.85850562    -19.44210116    -22.19944691    -19.44210116    -71.44714262     -6.20871730    -22.19944691     -6.20871730     27.45153406 
   -51.97393602    -15.96670854      0.15957322    -15.96670854    -42.37138291     16.98985447      0.15957322     16.98985447     -5.32223618 
   -56.23364302      2.21480970     10.89573757      2.21480970    -56.89057810     12.50992092     10.89573757     12.50992092     16.92077075 
   -61.12846831      8.58091814      6.25006633      8.58091814    -28.75970372    -23.28032226      6.25006633    -23.28032226    -17.47198994 
   -36.90861352      4.74391698    -17.51022031      4.74391698    -43.26828044      7.64663054    -17.51022031      7.64663054    -15.71598636 
   -32.66320139     -4.35009341    -12.45964255     -4.35009341    -10.52835108     13.73466993    -12.45964255     13.73466993     26.34431570 
   -40.47670781      6.40388961    -10.88567472      6.40388961    -60.01654082     -4.90371049    -10.88567472     -4.90371049     27.50015845 
   -25.45177202      6.33012016     -5.68304121      6.33012016    -15.26731203    -12.85717739     -5.68304121    -12.85717739     53.51061574 
   -34.37303461      9.76325485     18.59801573      9.76325485    -25.86652919      2.09145613     18.59801573      2.09145613     19.77973533 
   -48.39316658    -12.75674990      7.52657617    -12.75674990    -48.09322830     26.14149556      7.52657617     26.14149556     23.03900900 
   -17.45633991     -7.21328608      4.91516503     -7.21328608    -20.27974577     13.53546399      4.91516503     13.53546399     27.51179202 
   -76.98213173     -1.90368775    -17.51767841     -1.90368775    -65.40996087    -13.65403628    -17.51767841    -13.65403628     31.20922578 
   -36.92828368    -32.13434827      6.61975065    -32.13434827    -30.15872255      6.40439808      6.61975065      6.40439808     79.83962346 
   -19.60152080     -6.67146065    -14.28124206     -6.67146065    -67.84997458    -18.65381682    -14.28124206    -18.65381682     19.27310853 
   -35.58059650    -17.46223690      9.84184044    -17.46223690    -27.24783826      4.56473933      9.84184044      4.56473933     56.80147913 
   -37.89584385      9.88668798    -34.06873883      9.88668798     13.07594216     -0.48776829    -34.06873883     -0.48776829     29.15353532 
   -54.94152938      2.37326395      3.43325931      2.37326395    -72.23915277     -0.20637078      3.43325931     -0.20637078     23.45122477 
   -23.88891260      1.59635029     10.83640139      1.59635029    -23.72927757     26.08624182     10.83640139     26.08624182     22.21743994 
   -74.65354058     -4.23805581     10.33260509     -4.23805581    -91.17445724     -8.18544850     10.33260509     -8.18544850     10.27634771 
     6.10442760     19.07281986     14.27179539     19.07281986    -51.02026198    -21.83903513     14.27179539    -21.83903513     45.15963641 
   -26.32134465     -6.17009077     18.74469824     -6.17009077    -49.29508686    -25.62744386     18.74469824    -25.62744386     37.87385502 
   -24.13115412    -16.92558400      4.08127995    -16.92558400    -32.40630107     23.62451247      4.08127995     23.62451247     35.46491547 
   -30.15319783     -7.36244488     10.95456767     -7.36244488    -34.96457901     -7.01542519     10.95456767     -7.01542519     27.06753622 
   -78.11612303    -27.66085259     -5.68219548    -27.66085259    -39.35342316     20.94723549     -5.68219548     20.94723549     40.41297446 
   -25.87940750     14.65562099    -12.63027605     14.65562099      4.10694945     27.18275448    -12.63027605     27.18275448     64.81103792 
   -12.05435427     -7.28889748     22.65468137     -7.28889748    -36.61334219     -6.00372508     22.65468137     -6.00372508     37.28876126 
   -39.98554691    -19.31306604     -6.50644069    -19.31306604     -6.97520443     -6.56269234     -6.50644069     -6.56269234     42.00123099 
   -39.06850148     -7.74423684     -9.34940593     -7.74423684    -63.21174650     10.66357945     -9.34940593     10.66357945     15.47908672 
   -57.23716475    -20.27423350     -7.12414038    -20.27423350    -20.90311018    -12.75587191     -7.12414038    -12.75587191     15.78762071 
   -57.77930496    -11.69097337      6.65240780    -11.69097337    -25.52122597     -8.58526535      6.65240780     -8.58526535     36.24577056 
   -55.04666024      9.94028277      2.62573507      9.94028277    -51.66133752      0.78772052      2.62573507      0.78772052     22.32812573 
   -62.60127074    -13.48753236    -11.10682824    -13.48753236    -38.68175541     19.16747996    -11.10682824     19.16747996     44.67100709 
   -43.65384432     -0.52504624     12.67611630     -0.52504624    -60.08966671    -11.30724576     12.67611630    -11.30724576     40.76609001 
   -40.26050739    -24.25388292     -7.90948677    -24.25388292    -56.75502429     -9.29810367     -7.90948677     -9.29810367     25.65188236 
   -23.02419490     -1.38032490      6.80772484     -1.38032490    -22.24482779     11.49331752      6.80772484     11.49331752      6.41334630 
   -17.48652639    -17.02660165     -7.39634074    -17.02660165     -6.60789832     -0.50685584     -7.39634074     -0.50685584     27.96154703 
   -14.88549695      5.67468535    -26.66633133      5.67468535    -71.92311947    -18.25278958    -26.66633133    -18.25278958     20.04430181 
   -20.52459229     -6.61327128     -9.63380086     -6.61327128    -44.43555470     31.03078213     -9.63380086     31.03078213     34.50157699 
   -35.21213378    -17.66237627     -2.08344715    -17.66237627    -31.55202393      0.87279543     -2.08344715      0.87279543     14.67797901 
   -25.18470419      5.52880759     -6.34545659      5.52880759    -19.77792461     10.02507047     -6.34545659     10.02507047     11.02945487 
   -77.08536770     35.12312148      6.08026296     35.12312148    -43.29259652      4.76865000      6.08026296      4.76865000     36.57526440 
   -39.33852222      7.73105386    -16.37935139      7.73105386    -42.18384955      5.95272428    -16.37935139      5.95272428     77.46029262 
   -57.73590762    -14.09906555     16.74088381    -14.09906555    -48.32091700      2.75423606     16.74088381      2.75423606     64.70581112 
   -32.79946341     -1.81020773     24.91145977     -1.81020773    -31.34566964     -6.86565834     24.91145977     -6.86565834     44.69243442 
   -64.74261217      6.48832551    -15.92077559      6.48832551    -44.96822128     12.32031751    -15.92077559     12.32031751     51.55030872 
   -41.36977744      0.00936180    -29.10582441      0.00936180    -24.79939815     14.16439766    -29.10582441     14.16439766     78.42376683 
   -46.67043770      0.79642385     12.33051516      0.79642385    -35.11760700    -19.04858459     12.33051516    -19.04858459     67.97711814 
   -26.08300854     11.21859908     14.94875984     11.21859908    -40.43194354    -19.24125639     14.94875984    -19.24125639     69.22353615 
   -31.64134678      0.36574171     -9.15292071      0.36574171    -48.50297735     10.78469141     -9.15292071     10.78469141     49.15943682 
   -33.74016577    -14.84342109     16.17576357    -14.84342109    -13.96144791    -20.54809873     16.17576357    -20.54809873     26.43104755 
   -49.18383055     -8.93739391     11.73502351     -8.93739391    -36.83858581    -26.98116606     11.73502351    -26.98116606      1.81188763 
   -30.70867488     22.74577871    -10.20187521     22.74577871    -76.64053362     25.87472850    -10.20187521     25.87472850     46.18479780 
   -33.08706877    -23.20306746    -16.09894152    -23.20306746    -22.72571513    -13.92745639    -16.09894152    -13.92745639     83.55537847 
   -56.25772769     -9.10919729     21.77960339     -9.10919729    -37.45829378    -18.31211060     21.77960339    -18.31211060     47.03607118 
   -23.33341350      7.97779626     26.53953139      7.97779626    -22.12408833    -29.88626848     26.53953139    -29.88626848     48.76674047 
   -64.68069792     -1.10501265     -2.79998967     -1.10501265    -63.17301117     10.63808786     -2.79998967     10.63808786     62.63923388 
   -34.49622983    -13.16463894    -26.20738308    -13.16463894    -16.44642216      4.60387302    -26.20738308      4.60387302     47.89528186 
    -2.95395233     12.79734409      9.08620779     12.79734409    -24.55706569     -4.52440799      9.08620779     -4.52440799     95.95671082 
   -44.47491862     -6.77240231     14.48151310     -6.77240231    -40.71871761     16.26125921     14.48151310     16.26125921     49.97339739 
   -43.93161253    -10.23567096     -9.66232300    -10.23567096    -41.66641813     10.31086413     -9.66232300     10.31086413    -10.69622915 
   -20.32680999     -3.32364468     -4.06536200     -3.32364468    -17.79182676     -1.12665921     -4.06536200     -1.12665921     38.80402110 
   -42.23561286      6.72207201      9.90966544      6.72207201    -64.04250198      3.57197969      9.90966544      3.57197969     41.49496615 
   -60.14339772     11.94827643     16.94074875     11.94827643    -37.41549474     23.83110847     16.94074875     23.83110847    106.99223435 
   -77.54141931     10.29510017     17.39290603     10.29510017   -119.66881919    -10.18258541     17.39290603    -10.18258541     -3.08477956 
   -75.53490617    -18.12425194      3.13166071    -18.12425194    -68.13706096    -17.79608390      3.13166071    -17.79608390     11.63590101 
   -30.87066221     -0.55478802      3.82709702     -0.55478802    -57.25600432     -5.51026745      3.82709702     -5.51026745    -49.64882621 
     8.49997931     -1.39005187      7.70163871     -1.39005187    -14.54858337      6.45247048      7.70163871      6.45247048      8.50937155 
   -59.23012751      3.68543016     -3.85465909      3.68543016    -36.21499225    -13.76395344     -3.85465909    -13.76395344    -31.73042545 
   -43.62979256     20.37185100      1.80498172     20.37185100    -62.92053471      8.69587548      1.80498172      8.69587548    -30.30865141 
   -32.53754169     -0.76237804      6.15549675     -0.76237804    -60.14315632     36.17060246      6.15549675     36.17060246    -51.87935487 
   -21.29588248    -13.69558520     12.71732911    -13.69558520    -36.50588334    -13.66736627     12.71732911    -13.66736627    -28.17189400 
   -75.53490617    -18.12425194      3.13166071    -18.12425194    -68.13706096    -17.79608390      3.13166071    -17.79608390     11.63590101 
   -56.46669519      0.39401914     20.88301437      0.39401914    -76.07383807     -2.27030075     20.88301437     -2.27030075      9.90676693 
   -43.47617973     -1.53091754      2.09444547     -1.53091754    -58.52237544      5.55075010      2.09444547      5.55075010     -5.63527929 
   -32.60466345     -6.00661618    -21.08885399     -6.00661618    -63.56689278      2.37449046    -21.08885399      2.37449046      9.44164981 
   -48.66722490    -12.39229144    -19.93665082    -12.39229144    -50.11408835     -0.15971869    -19.93665082     -0.15971869      9.00061804 
   -62.27973841     12.86406193     29.87509119     12.86406193    -52.92320214     -7.92719606     29.87509119     -7.92719606    -33.75875901 
   -69.34640181    -18.18337528    -32.88582578    -18.18337528    -48.41394038     -2.01724752    -32.88582578     -2.01724752     15.57502733 
   -56.56834520     -1.13606137     32.94577980     -1.13606137    -39.99687146      1.82145377     32.94577980      1.82145377    -17.90470279 
   -53.00345790    -11.59714533     39.70802511    -11.59714533    -34.64131113    -29.75287042     39.70802511    -29.75287042     24.65800803 
   -40.20986462    -15.66850031    -42.00511570    -15.66850031    -37.98224940      9.29582892    -42.00511570      9.29582892    -31.25240763 
   -56.00428285     -8.26877379     10.00512243     -8.26877379    -25.81997354     10.28669248     10.00512243     10.28669248     13.62799040 
   -70.88148812      4.71979136     -6.93865741      4.71979136    -46.84063852    -46.75602075     -6.93865741    -46.75602075    -29.87947596 
   -52.07956598      0.73470902      7.53547708      0.73470902    -62.05465376    -26.65675017      7.53547708    -26.65675017    -54.67930557 
   -54.68525861     10.05533400     14.29508304     10.05533400    -54.57269890    -27.11750988     14.29508304    -27.11750988     27.95232773 
   -48.09934690      2.77586404    -10.13753051      2.77586404    -51.87864829     26.36133050    -10.13753051     26.36133050     26.62391224 
   -46.56493758      1.45515430     -7.57619045      1.45515430    -65.24724116     -4.84425560     -7.57619045     -4.84425560      3.60502743 
   -19.67369484     -5.02187048     11.46378299     -5.02187048    -22.37271512    -21.50752395     11.46378299    -21.50752395    -23.51062959 
   -20.51305831     -2.67684140     -6.19900114     -2.67684140    -38.85646623      8.89462739     -6.19900114      8.89462739      0.89228047 
   -77.30098678      1.87623754     22.23341489      1.87623754    -29.73836506    -31.37069172     22.23341489    -31.37069172     32.04613724 
   -54.49661325    -11.64963834      1.38216048    -11.64963834    -73.17928587     -6.26203320      1.38216048     -6.26203320    -25.62168239 
   -50.60893188     -2.96430444      1.27577660     -2.96430444    -38.25453646    -28.34850642      1.27577660    -28.34850642     16.81961350 
   -26.19601570     -1.41879425     -7.94900620     -1.41879425    -56.99606573     22.45641231     -7.94900620     22.45641231     -1.07114268 
   -23.58245953     17.19103965    -14.36189644     17.19103965    -67.00651813     -4.95335041    -14.36189644     -4.95335041    -27.85907136 
   -58.77125747    -15.01900846      2.90054601    -15.01900846    -64.85395589    -18.71743929      2.90054601    -18.71743929     11.28303010 
   -61.77435902     -8.20962329    -13.25952903     -8.20962329    -14.19051724     10.05279187    -13.25952903     10.05279187    -34.19265785 
   -51.35866165    -11.67541658    -29.05212441    -11.67541658    -32.65541575     13.98980214    -29.05212441     13.98980214    -55.82749555 
   -66.59802865     -2.56435287     27.87911834     -2.56435287    -40.95449999     -2.46102729     27.87911834     -2.46102729     -5.26960424 
   -10.96138819     22.96448365    -28.46394725     22.96448365    -40.87058696      0.77893426    -28.46394725      0.77893426     24.72881668 
   -55.72075817     -2.59755133     -0.90023440     -2.59755133    -38.11930023     26.11617494     -0.90023440     26.11617494     36.45011562 
   -26.10307610    -12.20586604      9.02989782    -12.20586604    -52.97665337    -11.81121910      9.02989782    -11.81121910     -0.79869023 
   -55.65171218      8.98577502      2.96708977      8.98577502    -62.56240228     -6.76984722      2.96708977     -6.76984722     -9.27685028 
   -63.80524286      3.37544268      3.58171973      3.37544268    -92.44962448     13.38925596      3.58171973     13.38925596     -0.23440574 
   -33.66207346    -25.10582736    -11.07996342    -25.10582736    -60.20332368    -28.23936486    -11.07996342    -28.23936486     14.97343067 
   -68.52914803    -15.04573770     -4.14957494    -15.04573770    -45.33481192    -22.22516101     -4.14957494    -22.22516101    -44.70437763 
   -58.37150383     -1.92443845     15.02939492     -1.92443845    -84.51570425     18.43705911     15.02939492     18.43705911     -8.80547935 
   -23.72028681     10.15779779     -2.57931154     10.15779779    -38.17381072     -9.83890109     -2.57931154     -9.83890109     27.16249529 
   -31.37228827    -16.96205060      5.97612070    -16.96205060    -44.96632108    -23.08827794      5.97612070    -23.08827794     12.30874468 
   -65.13675869     -6.24689134     15.18980946     -6.24689134    -42.08432058     19.49217973     15.18980946     19.49217973    -15.34011061 
   -38.33476696     11.45150010     -7.81938914     11.45150010    -51.36708219     -9.72013114     -7.81938914     -9.72013114    -39.13458414 
  -103.03322928     -3.97513465      8.38357781     -3.97513465    -13.47024299     17.04032838      8.38357781     17.04032838    -76.36591605 